+----------------------------+
| Elk version 7.2.42 started |
+----------------------------+
 
Date (YYYY-MM-DD) : 2024-03-31
Time (hh:mm:ss)   : 14:48:05
 
Using MPI, number of processes :       32
 
All units are atomic (Hartree, Bohr, etc.)
 
+-------------------------------------------------+
| Ground-state run starting from atomic densities |
+-------------------------------------------------+
 
Lattice vectors :
   4.848659199       0.000000000       0.000000000    
   2.424329599       4.199062041       0.000000000    
   0.000000000       0.000000000       66.40497486    
 
Reciprocal lattice vectors :
   1.295860371     -0.7481653339       0.000000000    
   0.000000000       1.496330668       0.000000000    
   0.000000000       0.000000000      0.9461919563E-01
 
Unit cell volume      :    1351.993388    
Brillouin zone volume :   0.1834699901    
 
Muffin-tin inner radius fraction :   0.1000000000E-01
 
Species :    1 (Cu)
 parameters loaded from : Cu.in
 name : copper
 nuclear charge    :   -29.00000000    
 electronic charge :    29.00000000    
 atomic mass :    115837.2717    
 muffin-tin radius :    2.200000000    
 number of radial points in muffin-tin :    749
 number on inner part of muffin-tin    :    533
 atomic positions (lattice), magnetic fields (Cartesian) :
   1 :   0.00000000  0.00000000  0.00000000    0.00000000  0.00000000  0.00000000
   2 :   0.66667002  0.66667002  0.11935479    0.00000000  0.00000000  0.00000000
   3 :   0.33333004  0.33333000  0.05951371    0.00000000  0.00000000  0.00000000
   4 :   0.00000000  0.00000000  0.17912255    0.00000000  0.00000000  0.00000000
   5 :   0.66667002  0.66667002  0.29841488    0.00000000  0.00000000  0.00000000
   6 :   0.33333004  0.33333000  0.23890149    0.00000000  0.00000000  0.00000000
   7 :   0.00000000  0.00000000  0.35811779    0.00000000  0.00000000  0.00000000
   8 :   0.66667002  0.66667002  0.47741029    0.00000000  0.00000000  0.00000000
   9 :   0.33333004  0.33333000  0.41763117    0.00000000  0.00000000  0.00000000
  10 :   0.00000000  0.00000000  0.53717812    0.00000000  0.00000000  0.00000000
  11 :   0.66667002  0.66667002  0.65652969    0.00000000  0.00000000  0.00000000
  12 :   0.33333004  0.33333000  0.59701862    0.00000000  0.00000000  0.00000000
 
Total number of atoms per unit cell :   12
 
Spin treatment :
 spin-unpolarised
 
Number of Bravais lattice symmetries :   24
Number of crystal symmetries         :    2
Crystal has no inversion symmetry
Complex Hermitian eigensolver will be used
 
k-point grid :     11    11     1
k-point offset :    0.000000000       0.000000000       0.000000000    
k-point set is reduced with full crystal symmetry group
Total number of k-points :       66
 
Muffin-tin radius times maximum |G+k| :    8.000000000    
 using average radius
Maximum |G+k| for APW functions       :    3.636363636    
Maximum (1/2)|G+k|Â²                   :    6.611570248    
Maximum |G| for potential and density :    16.00000000    
Constant for pseudocharge density :    9
Radial integration step length :    4
 
G-vector grid sizes :     25    25   360
Number of G-vectors :    93795
 
Maximum angular momentum used for
 APW functions                      :    9
 outer part of muffin-tin           :    7
 inner part of muffin-tin           :    1
 
Total nuclear charge    :   -348.0000000    
Total core charge       :    144.0000000    
Total valence charge    :    204.0000000    
Total excess charge     :    0.000000000    
Total electronic charge :    348.0000000    
 
Effective Wigner radius, râ‚? :   0.9752191890    
 
Number of empty states         :  120
Total number of valence states :  223
Total number of core states    :  144
 
Conduction state local-orbitals added automatically
Total number of local-orbitals : 1164
 
Exchange-correlation functional :     20     0     0
 Perdew-Burke-Ernzerhof, Phys. Rev. Lett. 77, 3865 (1996)
 Generalised gradient approximation (GGA)
 
Smearing type :    3
 Fermi-Dirac
Smearing width :   0.1000000000E-02
Effective electronic temperature (K) :    315.7750248    
 
Mixing type :    3
 Broyden mixing, J. Phys. A: Math. Gen. 17, L317 (1984)
 
Kohn-Sham potential initialised from atomic data
 
+------------------------------+
| Self-consistent loop started |
+------------------------------+
 
+--------------------+
| Loop number :    1 |
+--------------------+
 
Energies :
 Fermi                       :     0.103127434598    
 sum of eigenvalues          :     -11410.9507631    
 electron kinetic            :      20200.2226142    
 core electron kinetic       :      17985.5557614    
 Coulomb                     :     -39162.9710318    
 Coulomb potential           :     -30567.7356459    
 nuclear-nuclear             :      14058.9499008    
 electron-nuclear            :     -75876.1062193    
 Hartree                     :      22654.1852867    
 Madelung                    :     -23879.1032088    
 xc potential                :     -1043.43773143    
 exchange                    :     -786.646060173    
 correlation                 :     -16.6455565245    
 electron entropic           :    -0.673899487025E-03
 total energy                :     -19766.0407081    
 
Density of states at Fermi energy :    204.3728164    
 (states/Hartree/unit cell)
 
Estimated indirect band gap :   0.1122876100E-02
 from k-point     38 to k-point     24
Estimated direct band gap   :   0.2381303812E-02
 at k-point      7
 
Charges :
 core                        :    144.0000000    
 valence                     :    204.0000000    
 interstitial                :    17.81741231    
 muffin-tins (core leakage)
  species :    1 (Cu)
   atom    1                 :    27.36524616     (  0.5209670244E-03)
   atom    2                 :    27.53415041     (  0.5293705636E-03)
   atom    3                 :    27.51940968     (  0.5294762820E-03)
   atom    4                 :    27.54851988     (  0.5294127560E-03)
   atom    5                 :    27.56446228     (  0.5296298852E-03)
   atom    6                 :    27.55963201     (  0.5295792921E-03)
   atom    7                 :    27.56444806     (  0.5296298054E-03)
   atom    8                 :    27.54849572     (  0.5294126133E-03)
   atom    9                 :    27.55962462     (  0.5295791187E-03)
   atom   10                 :    27.53411778     (  0.5293709216E-03)
   atom   11                 :    27.36507505     (  0.5209688018E-03)
   atom   12                 :    27.51940606     (  0.5294785160E-03)
 total in muffin-tins        :    330.1825877    
 total calculated charge     :    347.9717178    
 total charge                :    348.0000000    
 error                       :   0.2828223318E-01
 
Time (CPU seconds) :        57.25
 
+--------------------+
| Loop number :    2 |
+--------------------+
 
Energies :
 Fermi                       :     0.101776320169    
 sum of eigenvalues          :     -11411.7694243    
 electron kinetic            :      20250.1355514    
 core electron kinetic       :      17985.9019515    
 Coulomb                     :     -39167.3364366    
 Coulomb potential           :     -30617.9532509    
 nuclear-nuclear             :      14058.9499008    
 electron-nuclear            :     -75834.6194238    
 Hartree                     :      22608.3330865    
 Madelung                    :     -23858.3598111    
 xc potential                :     -1043.95172472    
 exchange                    :     -787.034410293    
 correlation                 :     -16.6462150479    
 electron entropic           :    -0.646554373838E-03
 total energy                :     -19720.8821571    
 
Density of states at Fermi energy :    201.2115861    
 (states/Hartree/unit cell)
 
Estimated indirect band gap :   0.7565780760E-03
 from k-point     46 to k-point     24
Estimated direct band gap   :   0.6802058620E-02
 at k-point     28
 
Charges :
 core                        :    144.0000000    
 valence                     :    204.0000000    
 interstitial                :    17.66927078    
 muffin-tins (core leakage)
  species :    1 (Cu)
   atom    1                 :    27.44781610     (  0.5185587744E-03)
   atom    2                 :    27.54242586     (  0.5270109526E-03)
   atom    3                 :    27.55270958     (  0.5270889087E-03)
   atom    4                 :    27.54249111     (  0.5270866504E-03)
   atom    5                 :    27.53954326     (  0.5273377702E-03)
   atom    6                 :    27.54004482     (  0.5272752227E-03)
   atom    7                 :    27.53955814     (  0.5273377314E-03)
   atom    8                 :    27.54257221     (  0.5270863867E-03)
   atom    9                 :    27.54010233     (  0.5272750898E-03)
   atom   10                 :    27.54254408     (  0.5270110926E-03)
   atom   11                 :    27.44801508     (  0.5185600426E-03)
   atom   12                 :    27.55290665     (  0.5270909837E-03)
 total in muffin-tins        :    330.3307292    
 total calculated charge     :    347.9716958    
 total charge                :    348.0000000    
 error                       :   0.2830421357E-01
 
RMS change in Kohn-Sham potential (target) :   0.4658701398     (  0.1000000000E-06)
Absolute change in total energy (target)   :    45.15855107     (  0.1000000000E-04)
 
Time (CPU seconds) :       110.30
 
+--------------------+
| Loop number :    3 |
+--------------------+
 
Energies :
 Fermi                       :     0.100112756781    
 sum of eigenvalues          :     -11413.1679125    
 electron kinetic            :      20163.2635676    
 core electron kinetic       :      17984.7922420    
 Coulomb                     :     -39169.9985032    
 Coulomb potential           :     -30532.1261446    
 nuclear-nuclear             :      14058.9499008    
 electron-nuclear            :     -75925.7706635    
 Hartree                     :      22696.8222595    
 Madelung                    :     -23903.9354309    
 xc potential                :     -1044.30533547    
 exchange                    :     -787.300443821    
 correlation                 :     -16.6478484794    
 electron entropic           :    -0.663044421464E-03
 total energy                :     -19810.6838910    
 
Density of states at Fermi energy :    202.5285498    
 (states/Hartree/unit cell)
 
Estimated indirect band gap :   0.5736424431E-03
 from k-point     29 to k-point     66
Estimated direct band gap   :   0.8491256666E-03
 at k-point     12
 
Charges :
 core                        :    144.0000000    
 valence                     :    204.0000000    
 interstitial                :    17.55743412    
 muffin-tins (core leakage)
  species :    1 (Cu)
   atom    1                 :    27.36380356     (  0.5175446641E-03)
   atom    2                 :    27.55427761     (  0.5255932834E-03)
   atom    3                 :    27.52568127     (  0.5257983817E-03)
   atom    4                 :    27.57768462     (  0.5256103681E-03)
   atom    5                 :    27.60514384     (  0.5257730000E-03)
   atom    6                 :    27.59667227     (  0.5257329349E-03)
   atom    7                 :    27.60505133     (  0.5257730895E-03)
   atom    8                 :    27.57729294     (  0.5256107356E-03)
   atom    9                 :    27.59644598     (  0.5257332087E-03)
   atom   10                 :    27.55364582     (  0.5255942819E-03)
   atom   11                 :    27.36215938     (  0.5175478364E-03)
   atom   12                 :    27.52470727     (  0.5258014811E-03)
 total in muffin-tins        :    330.4425659    
 total calculated charge     :    347.9716756    
 total charge                :    348.0000000    
 error                       :   0.2832444028E-01
 
RMS change in Kohn-Sham potential (target) :   0.6047984884     (  0.1000000000E-06)
Absolute change in total energy (target)   :    78.51209619     (  0.1000000000E-04)
 
Time (CPU seconds) :       163.20
 
+--------------------+
| Loop number :    4 |
+--------------------+
 
Energies :
 Fermi                       :     0.103092364826    
 sum of eigenvalues          :     -11411.9275357    
 electron kinetic            :      20205.0143032    
 core electron kinetic       :      17985.8221098    
 Coulomb                     :     -39172.0544378    
 Coulomb potential           :     -30572.3739656    
 nuclear-nuclear             :      14058.9499008    
 electron-nuclear            :     -75889.6347116    
 Hartree                     :      22658.6303730    
 Madelung                    :     -23885.8674550    
 xc potential                :     -1044.56787327    
 exchange                    :     -787.499771327    
 correlation                 :     -16.6471507181    
 electron entropic           :    -0.598994506605E-03
 total energy                :     -19771.1876556    
 
Density of states at Fermi energy :    181.4909427    
 (states/Hartree/unit cell)
 
Estimated indirect band gap :   0.7614958967E-03
 from k-point     24 to k-point     57
Estimated direct band gap   :   0.3577524037E-02
 at k-point      6
 
Charges :
 core                        :    144.0000000    
 valence                     :    204.0000000    
 interstitial                :    17.48332049    
 muffin-tins (core leakage)
  species :    1 (Cu)
   atom    1                 :    27.34206280     (  0.5181338792E-03)
   atom    2                 :    27.55292171     (  0.5237941696E-03)
   atom    3                 :    27.52700247     (  0.5240612130E-03)
   atom    4                 :    27.56381120     (  0.5238979322E-03)
   atom    5                 :    27.57600965     (  0.5241370613E-03)
   atom    6                 :    27.57225592     (  0.5240487776E-03)
   atom    7                 :    27.58293419     (  0.5241304143E-03)
   atom    8                 :    27.59222773     (  0.5238699965E-03)
   atom    9                 :    27.59016686     (  0.5240308921E-03)
   atom   10                 :    27.59383494     (  0.5237452364E-03)
   atom   11                 :    27.43660334     (  0.5180133610E-03)
   atom   12                 :    27.58684869     (  0.5239813319E-03)
 total in muffin-tins        :    330.5166795    
 total calculated charge     :    347.9716698    
 total charge                :    348.0000000    
 error                       :   0.2833024323E-01
 
RMS change in Kohn-Sham potential (target) :   0.5725216995     (  0.1000000000E-06)
Absolute change in total energy (target)   :    19.86821137     (  0.1000000000E-04)
 
Time (CPU seconds) :       216.36
 
+--------------------+
| Loop number :    5 |
+--------------------+
 
Energies :
 Fermi                       :     0.101673298417    
 sum of eigenvalues          :     -11412.9117886    
 electron kinetic            :      20204.9645492    
 core electron kinetic       :      17986.3039120    
 Coulomb                     :     -39175.9004005    
 Coulomb potential           :     -30572.8453543    
 nuclear-nuclear             :      14058.9499008    
 electron-nuclear            :     -75896.8552485    
 Hartree                     :      22662.0049471    
 Madelung                    :     -23889.4777234    
 xc potential                :     -1045.03098349    
 exchange                    :     -787.849162174    
 correlation                 :     -16.6482865167    
 electron entropic           :    -0.590421183016E-03
 total energy                :     -19775.4338905    
 
Density of states at Fermi energy :    178.7960246    
 (states/Hartree/unit cell)
 
Estimated indirect band gap :   0.1041900886E-02
 from k-point     24 to k-point     57
Estimated direct band gap   :   0.3482415251E-02
 at k-point      6
 
Charges :
 core                        :    144.0000000    
 valence                     :    204.0000000    
 interstitial                :    17.34916441    
 muffin-tins (core leakage)
  species :    1 (Cu)
   atom    1                 :    27.37336950     (  0.5159694301E-03)
   atom    2                 :    27.56273809     (  0.5218231119E-03)
   atom    3                 :    27.54027743     (  0.5220440011E-03)
   atom    4                 :    27.57349511     (  0.5219416322E-03)
   atom    5                 :    27.58499756     (  0.5221944500E-03)
   atom    6                 :    27.58131639     (  0.5221010283E-03)
   atom    7                 :    27.59126302     (  0.5222039127E-03)
   atom    8                 :    27.59979777     (  0.5219704283E-03)
   atom    9                 :    27.59774073     (  0.5221227153E-03)
   atom   10                 :    27.60040658     (  0.5218579818E-03)
   atom   11                 :    27.45187561     (  0.5160576084E-03)
   atom   12                 :    27.59355779     (  0.5220890191E-03)
 total in muffin-tins        :    330.6508356    
 total calculated charge     :    347.9716479    
 total charge                :    348.0000000    
 error                       :   0.2835213872E-01
 
RMS change in Kohn-Sham potential (target) :   0.5352978516     (  0.1000000000E-06)
Absolute change in total energy (target)   :   0.7208179915     (  0.1000000000E-04)
 
Time (CPU seconds) :       269.46
 
+--------------------+
| Loop number :    6 |
+--------------------+
 
Energies :
 Fermi                       :     0.100429426570    
 sum of eigenvalues          :     -11414.3157852    
 electron kinetic            :      20187.4000782    
 core electron kinetic       :      17985.3938645    
 Coulomb                     :     -39183.0877621    
 Coulomb potential           :     -30555.7847282    
 nuclear-nuclear             :      14058.9499008    
 electron-nuclear            :     -75928.2905977    
 Hartree                     :      22686.2529348    
 Madelung                    :     -23905.1953980    
 xc potential                :     -1045.93113517    
 exchange                    :     -788.528331044    
 correlation                 :     -16.6504198254    
 electron entropic           :    -0.525734147157E-03
 total energy                :     -19800.8669606    
 
Density of states at Fermi energy :    153.9509320    
 (states/Hartree/unit cell)
 
Estimated indirect band gap :   0.1569350643E-02
 from k-point     24 to k-point      8
Estimated direct band gap   :   0.4364700017E-02
 at k-point      7
 
Charges :
 core                        :    144.0000000    
 valence                     :    204.0000000    
 interstitial                :    17.08289784    
 muffin-tins (core leakage)
  species :    1 (Cu)
   atom    1                 :    27.35244679     (  0.5138662170E-03)
   atom    2                 :    27.59074528     (  0.5178253586E-03)
   atom    3                 :    27.56139506     (  0.5182407904E-03)
   atom    4                 :    27.59905585     (  0.5179426121E-03)
   atom    5                 :    27.61059541     (  0.5181688221E-03)
   atom    6                 :    27.60795973     (  0.5180774107E-03)
   atom    7                 :    27.61719123     (  0.5181493462E-03)
   atom    8                 :    27.62450580     (  0.5179135444E-03)
   atom    9                 :    27.62357372     (  0.5180367303E-03)
   atom   10                 :    27.62686290     (  0.5177497124E-03)
   atom   11                 :    27.48061370     (  0.5127926585E-03)
   atom   12                 :    27.62215669     (  0.5179676800E-03)
 total in muffin-tins        :    330.9171022    
 total calculated charge     :    347.9716065    
 total charge                :    348.0000000    
 error                       :   0.2839348348E-01
 
RMS change in Kohn-Sham potential (target) :   0.5824687496     (  0.1000000000E-06)
Absolute change in total energy (target)   :    25.25286560     (  0.1000000000E-04)
 
Time (CPU seconds) :       322.71
 
+--------------------+
| Loop number :    7 |
+--------------------+
 
Energies :
 Fermi                       :     0.101716132042    
 sum of eigenvalues          :     -11413.8822443    
 electron kinetic            :      20186.5357870    
 core electron kinetic       :      17985.4875183    
 Coulomb                     :     -39184.3741676    
 Coulomb potential           :     -30554.2966891    
 nuclear-nuclear             :      14058.9499008    
 electron-nuclear            :     -75932.3514479    
 Hartree                     :      22689.0273794    
 Madelung                    :     -23907.2258231    
 xc potential                :     -1046.12134219    
 exchange                    :     -788.672079662    
 correlation                 :     -16.6505567925    
 electron entropic           :    -0.524075388254E-03
 total energy                :     -19803.1615412    
 
Density of states at Fermi energy :    153.3906205    
 (states/Hartree/unit cell)
 
Estimated indirect band gap :   0.1708668687E-02
 from k-point     24 to k-point      8
Estimated direct band gap   :   0.4294837365E-02
 at k-point      2
 
Charges :
 core                        :    144.0000000    
 valence                     :    204.0000000    
 interstitial                :    17.01621072    
 muffin-tins (core leakage)
  species :    1 (Cu)
   atom    1                 :    27.36256413     (  0.5135134390E-03)
   atom    2                 :    27.59596863     (  0.5170388902E-03)
   atom    3                 :    27.56715076     (  0.5174946677E-03)
   atom    4                 :    27.60506386     (  0.5170562266E-03)
   atom    5                 :    27.61657163     (  0.5172455721E-03)
   atom    6                 :    27.61326208     (  0.5172028929E-03)
   atom    7                 :    27.62332535     (  0.5172022966E-03)
   atom    8                 :    27.63125289     (  0.5169002217E-03)
   atom    9                 :    27.63016554     (  0.5170484060E-03)
   atom   10                 :    27.63439516     (  0.5167433261E-03)
   atom   11                 :    27.47503087     (  0.5126538712E-03)
   atom   12                 :    27.62903838     (  0.5170111135E-03)
 total in muffin-tins        :    330.9837893    
 total calculated charge     :    347.9716011    
 total charge                :    348.0000000    
 error                       :   0.2839891061E-01
 
RMS change in Kohn-Sham potential (target) :   0.5672424936     (  0.1000000000E-06)
Absolute change in total energy (target)   :    8.607797030     (  0.1000000000E-04)
 
Time (CPU seconds) :       376.04
 
+--------------------+
| Loop number :    8 |
+--------------------+
 
Energies :
 Fermi                       :     0.101932492857    
 sum of eigenvalues          :     -11413.8430539    
 electron kinetic            :      20190.8420230    
 core electron kinetic       :      17984.4848843    
 Coulomb                     :     -39184.9998295    
 Coulomb potential           :     -30558.4806324    
 nuclear-nuclear             :      14058.9499008    
 electron-nuclear            :     -75929.4188283    
 Hartree                     :      22685.4690980    
 Madelung                    :     -23905.7595133    
 xc potential                :     -1046.20444449    
 exchange                    :     -788.734801842    
 correlation                 :     -16.6507138097    
 electron entropic           :    -0.522562863821E-03
 total energy                :     -19799.5438447    
 
Density of states at Fermi energy :    153.5217387    
 (states/Hartree/unit cell)
 
Estimated indirect band gap :   0.1785163084E-02
 from k-point     24 to k-point      8
Estimated direct band gap   :   0.4451307562E-02
 at k-point      7
 
Charges :
 core                        :    144.0000000    
 valence                     :    204.0000000    
 interstitial                :    16.98900377    
 muffin-tins (core leakage)
  species :    1 (Cu)
   atom    1                 :    27.36869555     (  0.5130861661E-03)
   atom    2                 :    27.59741351     (  0.5166894480E-03)
   atom    3                 :    27.56913633     (  0.5171172967E-03)
   atom    4                 :    27.60526275     (  0.5167636752E-03)
   atom    5                 :    27.61662158     (  0.5169690014E-03)
   atom    6                 :    27.61414626     (  0.5168896753E-03)
   atom    7                 :    27.62323594     (  0.5169460049E-03)
   atom    8                 :    27.63041040     (  0.5166955701E-03)
   atom    9                 :    27.62921765     (  0.5168322285E-03)
   atom   10                 :    27.63184141     (  0.5165867543E-03)
   atom   11                 :    27.49816839     (  0.5116862244E-03)
   atom   12                 :    27.62684647     (  0.5168212816E-03)
 total in muffin-tins        :    331.0109962    
 total calculated charge     :    347.9715979    
 total charge                :    348.0000000    
 error                       :   0.2840207917E-01
 
RMS change in Kohn-Sham potential (target) :   0.5603581590     (  0.1000000000E-06)
Absolute change in total energy (target)   :    1.465747201     (  0.1000000000E-04)
 
Time (CPU seconds) :       429.40
 
+--------------------+
| Loop number :    9 |
+--------------------+
 
Energies :
 Fermi                       :     0.114268189938    
 sum of eigenvalues          :     -11411.0391667    
 electron kinetic            :      20205.3394509    
 core electron kinetic       :      17984.8942467    
 Coulomb                     :     -39204.5606985    
 Coulomb potential           :     -30567.4717096    
 nuclear-nuclear             :      14058.9499008    
 electron-nuclear            :     -75959.5494890    
 Hartree                     :      22696.0388897    
 Madelung                    :     -23920.8248437    
 xc potential                :     -1048.90690799    
 exchange                    :     -790.775081821    
 correlation                 :     -16.6552260681    
 electron entropic           :    -0.585246640589E-03
 total energy                :     -19806.6521407    
 
Density of states at Fermi energy :    186.9157876    
 (states/Hartree/unit cell)
 
Estimated indirect band gap :   0.6604217915E-03
 from k-point     47 to k-point      6
Estimated direct band gap   :   0.1565555254E-02
 at k-point      6
 
Charges :
 core                        :    144.0000000    
 valence                     :    204.0000000    
 interstitial                :    16.10654551    
 muffin-tins (core leakage)
  species :    1 (Cu)
   atom    1                 :    27.51995804     (  0.5034044160E-03)
   atom    2                 :    27.67448440     (  0.5049117239E-03)
   atom    3                 :    27.66476608     (  0.5050749105E-03)
   atom    4                 :    27.67417862     (  0.5050490783E-03)
   atom    5                 :    27.68058660     (  0.5053651744E-03)
   atom    6                 :    27.68064095     (  0.5052139134E-03)
   atom    7                 :    27.68023405     (  0.5056113125E-03)
   atom    8                 :    27.67617106     (  0.5057770233E-03)
   atom    9                 :    27.68059651     (  0.5056861721E-03)
   atom   10                 :    27.67830282     (  0.5057495951E-03)
   atom   11                 :    27.60023926     (  0.5017526071E-03)
   atom   12                 :    27.68329610     (  0.5055249600E-03)
 total in muffin-tins        :    331.8934545    
 total calculated charge     :    347.9714886    
 total charge                :    348.0000000    
 error                       :   0.2851144083E-01
 
RMS change in Kohn-Sham potential (target) :   0.3068843478     (  0.1000000000E-06)
Absolute change in total energy (target)   :    6.741859194     (  0.1000000000E-04)
 
Time (CPU seconds) :       482.64
 
+--------------------+
| Loop number :   10 |
+--------------------+
 
Energies :
 Fermi                       :     0.124258020959    
 sum of eigenvalues          :     -11410.1270561    
 electron kinetic            :      20206.3954561    
 core electron kinetic       :      17984.5175533    
 Coulomb                     :     -39224.0260156    
 Coulomb potential           :     -30564.9842527    
 nuclear-nuclear             :      14058.9499008    
 electron-nuclear            :     -76000.9675802    
 Hartree                     :      22717.9916637    
 Madelung                    :     -23941.5338892    
 xc potential                :     -1051.53825942    
 exchange                    :     -792.760129294    
 correlation                 :     -16.6614366567    
 electron entropic           :    -0.429173070849E-03
 total energy                :     -19827.0525547    
 
Density of states at Fermi energy :    134.6343626    
 (states/Hartree/unit cell)
 
Estimated indirect band gap :   0.9007993418E-03
 from k-point     46 to k-point      2
Estimated direct band gap   :   0.3901535416E-02
 at k-point      7
 
Charges :
 core                        :    144.0000000    
 valence                     :    204.0000000    
 interstitial                :    15.29699234    
 muffin-tins (core leakage)
  species :    1 (Cu)
   atom    1                 :    27.69893942     (  0.4907082430E-03)
   atom    2                 :    27.71856949     (  0.4951728458E-03)
   atom    3                 :    27.70665350     (  0.4956610581E-03)
   atom    4                 :    27.73219022     (  0.4944131511E-03)
   atom    5                 :    27.73793495     (  0.4945560957E-03)
   atom    6                 :    27.73265168     (  0.4947781598E-03)
   atom    7                 :    27.74371103     (  0.4942563893E-03)
   atom    8                 :    27.75220221     (  0.4934267166E-03)
   atom    9                 :    27.74583268     (  0.4940975627E-03)
   atom   10                 :    27.74665715     (  0.4939976852E-03)
   atom   11                 :    27.65630937     (  0.4932537620E-03)
   atom   12                 :    27.73135597     (  0.4950061284E-03)
 total in muffin-tins        :    332.7030077    
 total calculated charge     :    347.9713573    
 total charge                :    348.0000000    
 error                       :   0.2864269546E-01
 
RMS change in Kohn-Sham potential (target) :   0.1568718187     (  0.1000000000E-06)
Absolute change in total energy (target)   :    22.08587875     (  0.1000000000E-04)
 
Time (CPU seconds) :       535.72
 
+--------------------+
| Loop number :   11 |
+--------------------+
 
Energies :
 Fermi                       :     0.129635576382    
 sum of eigenvalues          :     -11409.4786701    
 electron kinetic            :      20190.6746460    
 core electron kinetic       :      17984.7119366    
 Coulomb                     :     -39231.1946914    
 Coulomb potential           :     -30547.6355150    
 nuclear-nuclear             :      14058.9499008    
 electron-nuclear            :     -76032.6536695    
 Hartree                     :      22742.5090773    
 Madelung                    :     -23957.3769339    
 xc potential                :     -1052.51780119    
 exchange                    :     -793.498894829    
 correlation                 :     -16.6639291133    
 electron entropic           :    -0.342002775356E-03
 total energy                :     -19850.6832114    
 
Density of states at Fermi energy :    102.3475480    
 (states/Hartree/unit cell)
 
Estimated indirect band gap :   0.2394417837E-02
 from k-point     52 to k-point     11
Estimated direct band gap   :   0.5081120247E-02
 at k-point      6
 
Charges :
 core                        :    144.0000000    
 valence                     :    204.0000000    
 interstitial                :    15.00066273    
 muffin-tins (core leakage)
  species :    1 (Cu)
   atom    1                 :    27.64869678     (  0.4913862090E-03)
   atom    2                 :    27.76584223     (  0.4896351582E-03)
   atom    3                 :    27.77125287     (  0.4894228075E-03)
   atom    4                 :    27.76354679     (  0.4897523280E-03)
   atom    5                 :    27.76905876     (  0.4898797352E-03)
   atom    6                 :    27.76911518     (  0.4898122800E-03)
   atom    7                 :    27.76763907     (  0.4900105913E-03)
   atom    8                 :    27.76283037     (  0.4900411633E-03)
   atom    9                 :    27.76842797     (  0.4899716638E-03)
   atom   10                 :    27.76530120     (  0.4900928502E-03)
   atom   11                 :    27.67664307     (  0.4902277952E-03)
   atom   12                 :    27.77098299     (  0.4898841019E-03)
 total in muffin-tins        :    332.9993373    
 total calculated charge     :    347.9713002    
 total charge                :    348.0000000    
 error                       :   0.2869980035E-01
 
RMS change in Kohn-Sham potential (target) :   0.1307343010     (  0.1000000000E-06)
Absolute change in total energy (target)   :    29.15212637     (  0.1000000000E-04)
 
Time (CPU seconds) :       588.77
 
+--------------------+
| Loop number :   12 |
+--------------------+
 
Energies :
 Fermi                       :     0.133950430995    
 sum of eigenvalues          :     -11409.3421525    
 electron kinetic            :      20186.7131820    
 core electron kinetic       :      17984.6048442    
 Coulomb                     :     -39238.8335525    
 Coulomb potential           :     -30542.5148288    
 nuclear-nuclear             :      14058.9499008    
 electron-nuclear            :     -76053.0520779    
 Hartree                     :      22755.2686245    
 Madelung                    :     -23967.5761381    
 xc potential                :     -1053.54050570    
 exchange                    :     -794.269903876    
 correlation                 :     -16.6669014528    
 electron entropic           :    -0.240750430903E-03
 total energy                :     -19863.0574166    
 
Density of states at Fermi energy :    65.98862675    
 (states/Hartree/unit cell)
 
Estimated indirect band gap :   0.3136818996E-02
 from k-point     46 to k-point     11
Estimated direct band gap   :   0.6309427371E-02
 at k-point      7
 
Charges :
 core                        :    144.0000000    
 valence                     :    204.0000000    
 interstitial                :    14.70213809    
 muffin-tins (core leakage)
  species :    1 (Cu)
   atom    1                 :    27.70800419     (  0.4860044626E-03)
   atom    2                 :    27.78649962     (  0.4855672899E-03)
   atom    3                 :    27.77735886     (  0.4863353960E-03)
   atom    4                 :    27.79084599     (  0.4851933870E-03)
   atom    5                 :    27.79291217     (  0.4854481750E-03)
   atom    6                 :    27.79096994     (  0.4855394937E-03)
   atom    7                 :    27.79269936     (  0.4854943303E-03)
   atom    8                 :    27.78999608     (  0.4853891969E-03)
   atom    9                 :    27.79252590     (  0.4854972888E-03)
   atom   10                 :    27.79327747     (  0.4854014526E-03)
   atom   11                 :    27.68763519     (  0.4875107236E-03)
   atom   12                 :    27.79513713     (  0.4856431736E-03)
 total in muffin-tins        :    333.2978619    
 total calculated charge     :    347.9712377    
 total charge                :    348.0000000    
 error                       :   0.2876230788E-01
 
RMS change in Kohn-Sham potential (target) :   0.1048497961     (  0.1000000000E-06)
Absolute change in total energy (target)   :    19.66223679     (  0.1000000000E-04)
 
Time (CPU seconds) :       641.79
 
+--------------------+
| Loop number :   13 |
+--------------------+
 
Energies :
 Fermi                       :     0.136509817598    
 sum of eigenvalues          :     -11409.2096084    
 electron kinetic            :      20182.2874956    
 core electron kinetic       :      17984.5700182    
 Coulomb                     :     -39242.6450081    
 Coulomb potential           :     -30537.4442974    
 nuclear-nuclear             :      14058.9499008    
 electron-nuclear            :     -76065.7455204    
 Hartree                     :      22764.1506115    
 Madelung                    :     -23973.9228594    
 xc potential                :     -1054.05280664    
 exchange                    :     -794.656105746    
 correlation                 :     -16.6684246819    
 electron entropic           :    -0.207511110385E-03
 total energy                :     -19871.6822504    
 
Density of states at Fermi energy :    55.03053714    
 (states/Hartree/unit cell)
 
Estimated indirect band gap :   0.3673711055E-02
 from k-point     46 to k-point     51
Estimated direct band gap   :   0.6915153987E-02
 at k-point      7
 
Charges :
 core                        :    144.0000000    
 valence                     :    204.0000000    
 interstitial                :    14.55377963    
 muffin-tins (core leakage)
  species :    1 (Cu)
   atom    1                 :    27.69592243     (  0.4857083495E-03)
   atom    2                 :    27.79730328     (  0.4835144531E-03)
   atom    3                 :    27.81215867     (  0.4828301059E-03)
   atom    4                 :    27.79732346     (  0.4834535494E-03)
   atom    5                 :    27.80425827     (  0.4832933716E-03)
   atom    6                 :    27.80318800     (  0.4833349634E-03)
   atom    7                 :    27.80500887     (  0.4832255819E-03)
   atom    8                 :    27.80558339     (  0.4829208515E-03)
   atom    9                 :    27.80812582     (  0.4830189177E-03)
   atom   10                 :    27.80539250     (  0.4831774848E-03)
   atom   11                 :    27.70760544     (  0.4851226546E-03)
   atom   12                 :    27.80435025     (  0.4836142763E-03)
 total in muffin-tins        :    333.4462204    
 total calculated charge     :    347.9712018    
 total charge                :    348.0000000    
 error                       :   0.2879819230E-01
 
RMS change in Kohn-Sham potential (target) :   0.1126712667     (  0.1000000000E-06)
Absolute change in total energy (target)   :    13.54039301     (  0.1000000000E-04)
 
Time (CPU seconds) :       694.82
 
+--------------------+
| Loop number :   14 |
+--------------------+
 
Energies :
 Fermi                       :     0.137775362160    
 sum of eigenvalues          :     -11409.1351815    
 electron kinetic            :      20181.4256876    
 core electron kinetic       :      17984.5223720    
 Coulomb                     :     -39244.5364856    
 Coulomb potential           :     -30536.2530324    
 nuclear-nuclear             :      14058.9499008    
 electron-nuclear            :     -76070.7197404    
 Hartree                     :      22767.2333540    
 Madelung                    :     -23976.4099693    
 xc potential                :     -1054.30783668    
 exchange                    :     -794.848344713    
 correlation                 :     -16.6692011615    
 electron entropic           :    -0.187634919564E-03
 total energy                :     -19874.6285314    
 
Density of states at Fermi energy :    48.92762052    
 (states/Hartree/unit cell)
 
Estimated indirect band gap :   0.3859443209E-02
 from k-point     52 to k-point     51
Estimated direct band gap   :   0.7253231633E-02
 at k-point      6
 
Charges :
 core                        :    144.0000000    
 valence                     :    204.0000000    
 interstitial                :    14.47966360    
 muffin-tins (core leakage)
  species :    1 (Cu)
   atom    1                 :    27.71903216     (  0.4837996244E-03)
   atom    2                 :    27.80948986     (  0.4820500217E-03)
   atom    3                 :    27.79422540     (  0.4834350737E-03)
   atom    4                 :    27.81139713     (  0.4817854293E-03)
   atom    5                 :    27.81190369     (  0.4820630073E-03)
   atom    6                 :    27.81018700     (  0.4821394680E-03)
   atom    7                 :    27.81122397     (  0.4821147840E-03)
   atom    8                 :    27.80651917     (  0.4821879200E-03)
   atom    9                 :    27.81017535     (  0.4821889271E-03)
   atom   10                 :    27.81109408     (  0.4820886024E-03)
   atom   11                 :    27.70904917     (  0.4844810140E-03)
   atom   12                 :    27.81603943     (  0.4821454322E-03)
 total in muffin-tins        :    333.5203364    
 total calculated charge     :    347.9711830    
 total charge                :    348.0000000    
 error                       :   0.2881695401E-01
 
RMS change in Kohn-Sham potential (target) :   0.1097828646     (  0.1000000000E-06)
Absolute change in total energy (target)   :    6.331379329     (  0.1000000000E-04)
 
Time (CPU seconds) :       747.86
 
+--------------------+
| Loop number :   15 |
+--------------------+
 
Energies :
 Fermi                       :     0.139045722408    
 sum of eigenvalues          :     -11408.9947307    
 electron kinetic            :      20180.0611379    
 core electron kinetic       :      17984.5134345    
 Coulomb                     :     -39246.0291346    
 Coulomb potential           :     -30534.5437440    
 nuclear-nuclear             :      14058.9499008    
 electron-nuclear            :     -76075.4143268    
 Hartree                     :      22770.4352914    
 Madelung                    :     -23978.7572626    
 xc potential                :     -1054.51212455    
 exchange                    :     -795.002364734    
 correlation                 :     -16.6697902747    
 electron entropic           :    -0.178289660638E-03
 total energy                :     -19877.6403300    
 
Density of states at Fermi energy :    46.09898521    
 (states/Hartree/unit cell)
 
Estimated indirect band gap :   0.4025566359E-02
 from k-point     46 to k-point      2
Estimated direct band gap   :   0.7475759091E-02
 at k-point      7
 
Charges :
 core                        :    144.0000000    
 valence                     :    204.0000000    
 interstitial                :    14.41968707    
 muffin-tins (core leakage)
  species :    1 (Cu)
   atom    1                 :    27.71674302     (  0.4834164169E-03)
   atom    2                 :    27.81040609     (  0.4814574247E-03)
   atom    3                 :    27.81532272     (  0.4814027824E-03)
   atom    4                 :    27.81338137     (  0.4811643463E-03)
   atom    5                 :    27.81650817     (  0.4812254535E-03)
   atom    6                 :    27.81590336     (  0.4812369913E-03)
   atom    7                 :    27.81542744     (  0.4812892883E-03)
   atom    8                 :    27.81292811     (  0.4811937454E-03)
   atom    9                 :    27.81616600     (  0.4812205442E-03)
   atom   10                 :    27.81575875     (  0.4812329283E-03)
   atom   11                 :    27.71377266     (  0.4838564988E-03)
   atom   12                 :    27.81799524     (  0.4815474017E-03)
 total in muffin-tins        :    333.5803129    
 total calculated charge     :    347.9711666    
 total charge                :    348.0000000    
 error                       :   0.2883343546E-01
 
RMS change in Kohn-Sham potential (target) :   0.1115118797     (  0.1000000000E-06)
Absolute change in total energy (target)   :    4.594643380     (  0.1000000000E-04)
 
Time (CPU seconds) :       800.94
 
+--------------------+
| Loop number :   16 |
+--------------------+
 
Energies :
 Fermi                       :     0.139489272412    
 sum of eigenvalues          :     -11408.9254092    
 electron kinetic            :      20179.7934316    
 core electron kinetic       :      17984.4701164    
 Coulomb                     :     -39246.4479500    
 Coulomb potential           :     -30534.1498986    
 nuclear-nuclear             :      14058.9499008    
 electron-nuclear            :     -76076.6458031    
 Hartree                     :      22771.2479523    
 Madelung                    :     -23979.3730007    
 xc potential                :     -1054.56894225    
 exchange                    :     -795.045221410    
 correlation                 :     -16.6699365602    
 electron entropic           :    -0.175378304976E-03
 total energy                :     -19878.3698518    
 
Density of states at Fermi energy :    45.25555134    
 (states/Hartree/unit cell)
 
Estimated indirect band gap :   0.4048609163E-02
 from k-point     52 to k-point     11
Estimated direct band gap   :   0.7564528268E-02
 at k-point      6
 
Charges :
 core                        :    144.0000000    
 valence                     :    204.0000000    
 interstitial                :    14.40301769    
 muffin-tins (core leakage)
  species :    1 (Cu)
   atom    1                 :    27.71716752     (  0.4833862965E-03)
   atom    2                 :    27.81684637     (  0.4808812091E-03)
   atom    3                 :    27.81056734     (  0.4816853437E-03)
   atom    4                 :    27.81441871     (  0.4809343805E-03)
   atom    5                 :    27.81762507     (  0.4809968762E-03)
   atom    6                 :    27.81563451     (  0.4810967762E-03)
   atom    7                 :    27.81767933     (  0.4809688848E-03)
   atom    8                 :    27.81414600     (  0.4809474356E-03)
   atom    9                 :    27.81817461     (  0.4809210157E-03)
   atom   10                 :    27.81700370     (  0.4809705254E-03)
   atom   11                 :    27.71652744     (  0.4835031066E-03)
   atom   12                 :    27.82119172     (  0.4811227294E-03)
 total in muffin-tins        :    333.5969823    
 total calculated charge     :    347.9711608    
 total charge                :    348.0000000    
 error                       :   0.2883915925E-01
 
RMS change in Kohn-Sham potential (target) :   0.1130231726     (  0.1000000000E-06)
Absolute change in total energy (target)   :    1.878182619     (  0.1000000000E-04)
 
Time (CPU seconds) :       853.97
 
+--------------------+
| Loop number :   17 |
+--------------------+
 
Energies :
 Fermi                       :     0.139876538671    
 sum of eigenvalues          :     -11408.7908984    
 electron kinetic            :      20180.7435960    
 core electron kinetic       :      17984.3412342    
 Coulomb                     :     -39246.4863271    
 Coulomb potential           :     -30534.9585316    
 nuclear-nuclear             :      14058.9499008    
 electron-nuclear            :     -76075.9139244    
 Hartree                     :      22770.4776964    
 Madelung                    :     -23979.0070614    
 xc potential                :     -1054.57596285    
 exchange                    :     -795.050556612    
 correlation                 :     -16.6699101153    
 electron entropic           :    -0.176177022117E-03
 total energy                :     -19877.4633741    
 
Density of states at Fermi energy :    45.59905434    
 (states/Hartree/unit cell)
 
Estimated indirect band gap :   0.3913510623E-02
 from k-point     52 to k-point     11
Estimated direct band gap   :   0.7545491330E-02
 at k-point      7
 
Charges :
 core                        :    144.0000000    
 valence                     :    204.0000000    
 interstitial                :    14.40024773    
 muffin-tins (core leakage)
  species :    1 (Cu)
   atom    1                 :    27.71895489     (  0.4832251019E-03)
   atom    2                 :    27.80799744     (  0.4814812280E-03)
   atom    3                 :    27.81598545     (  0.4812502841E-03)
   atom    4                 :    27.81696771     (  0.4807486069E-03)
   atom    5                 :    27.81833490     (  0.4809207429E-03)
   atom    6                 :    27.81891182     (  0.4808373485E-03)
   atom    7                 :    27.81650233     (  0.4810457904E-03)
   atom    8                 :    27.81423986     (  0.4809349450E-03)
   atom    9                 :    27.81667618     (  0.4810222887E-03)
   atom   10                 :    27.81763251     (  0.4809239489E-03)
   atom   11                 :    27.71890386     (  0.4834009748E-03)
   atom   12                 :    27.81864533     (  0.4813057589E-03)
 total in muffin-tins        :    333.5997523    
 total calculated charge     :    347.9711593    
 total charge                :    348.0000000    
 error                       :   0.2884071339E-01
 
RMS change in Kohn-Sham potential (target) :   0.1080400632     (  0.1000000000E-06)
Absolute change in total energy (target)   :   0.4369320260     (  0.1000000000E-04)
 
Time (CPU seconds) :       906.99
 
+--------------------+
| Loop number :   18 |
+--------------------+
 
Energies :
 Fermi                       :     0.140842705250    
 sum of eigenvalues          :     -11408.4029555    
 electron kinetic            :      20183.6764359    
 core electron kinetic       :      17984.1941291    
 Coulomb                     :     -39246.3975524    
 Coulomb potential           :     -30537.5096696    
 nuclear-nuclear             :      14058.9499008    
 electron-nuclear            :     -76073.1852368    
 Hartree                     :      22767.8377836    
 Madelung                    :     -23977.6427175    
 xc potential                :     -1054.56972176    
 exchange                    :     -795.045971526    
 correlation                 :     -16.6697574494    
 electron entropic           :    -0.179561851348E-03
 total energy                :     -19874.4370250    
 
Density of states at Fermi energy :    46.92879850    
 (states/Hartree/unit cell)
 
Estimated indirect band gap :   0.3586588654E-02
 from k-point     46 to k-point      2
Estimated direct band gap   :   0.7535452234E-02
 at k-point      7
 
Charges :
 core                        :    144.0000000    
 valence                     :    204.0000000    
 interstitial                :    14.40039056    
 muffin-tins (core leakage)
  species :    1 (Cu)
   atom    1                 :    27.72431940     (  0.4829154440E-03)
   atom    2                 :    27.81805677     (  0.4807577504E-03)
   atom    3                 :    27.81295502     (  0.4813876532E-03)
   atom    4                 :    27.81153580     (  0.4811202179E-03)
   atom    5                 :    27.81698452     (  0.4810308595E-03)
   atom    6                 :    27.81487431     (  0.4811611244E-03)
   atom    7                 :    27.81661380     (  0.4810417692E-03)
   atom    8                 :    27.81318842     (  0.4810246058E-03)
   atom    9                 :    27.81730077     (  0.4809762392E-03)
   atom   10                 :    27.81480603     (  0.4811415015E-03)
   atom   11                 :    27.71973308     (  0.4834945788E-03)
   atom   12                 :    27.81924152     (  0.4813025740E-03)
 total in muffin-tins        :    333.5996094    
 total calculated charge     :    347.9711590    
 total charge                :    348.0000000    
 error                       :   0.2884095832E-01
 
RMS change in Kohn-Sham potential (target) :   0.9133958389E-01 (  0.1000000000E-06)
Absolute change in total energy (target)   :    3.135582117     (  0.1000000000E-04)
 
Time (CPU seconds) :       960.14
 
+--------------------+
| Loop number :   19 |
+--------------------+
 
Energies :
 Fermi                       :     0.143199771448    
 sum of eigenvalues          :     -11407.6605352    
 electron kinetic            :      20190.1359363    
 core electron kinetic       :      17984.2367971    
 Coulomb                     :     -39247.0666263    
 Coulomb potential           :     -30543.1338371    
 nuclear-nuclear             :      14058.9499008    
 electron-nuclear            :     -76068.8992173    
 Hartree                     :      22762.8826901    
 Madelung                    :     -23975.4997078    
 xc potential                :     -1054.66263444    
 exchange                    :     -795.116226180    
 correlation                 :     -16.6698080578    
 electron entropic           :    -0.185516722528E-03
 total energy                :     -19868.7169098    
 
Density of states at Fermi energy :    50.11155501    
 (states/Hartree/unit cell)
 
Estimated indirect band gap :   0.2796598643E-02
 from k-point     46 to k-point      2
Estimated direct band gap   :   0.7569306412E-02
 at k-point      6
 
Charges :
 core                        :    144.0000000    
 valence                     :    204.0000000    
 interstitial                :    14.37398240    
 muffin-tins (core leakage)
  species :    1 (Cu)
   atom    1                 :    27.73207061     (  0.4825595595E-03)
   atom    2                 :    27.80954192     (  0.4810808552E-03)
   atom    3                 :    27.81154213     (  0.4813762984E-03)
   atom    4                 :    27.81846218     (  0.4803189390E-03)
   atom    5                 :    27.81606822     (  0.4807529563E-03)
   atom    6                 :    27.81484681     (  0.4807945891E-03)
   atom    7                 :    27.81767198     (  0.4806243318E-03)
   atom    8                 :    27.81511194     (  0.4805441756E-03)
   atom    9                 :    27.81742136     (  0.4806284948E-03)
   atom   10                 :    27.81712267     (  0.4806058573E-03)
   atom   11                 :    27.73877698     (  0.4821326335E-03)
   atom   12                 :    27.81738081     (  0.4810192475E-03)
 total in muffin-tins        :    333.6260176    
 total calculated charge     :    347.9711526    
 total charge                :    348.0000000    
 error                       :   0.2884739621E-01
 
RMS change in Kohn-Sham potential (target) :   0.6131875741E-01 (  0.1000000000E-06)
Absolute change in total energy (target)   :    6.504010711     (  0.1000000000E-04)
 
Time (CPU seconds) :      1013.33
 
+--------------------+
| Loop number :   20 |
+--------------------+
 
Energies :
 Fermi                       :     0.144842089796    
 sum of eigenvalues          :     -11407.1087930    
 electron kinetic            :      20196.2600817    
 core electron kinetic       :      17984.3507524    
 Coulomb                     :     -39247.4981380    
 Coulomb potential           :     -30548.6424497    
 nuclear-nuclear             :      14058.9499008    
 electron-nuclear            :     -76064.2536279    
 Hartree                     :      22757.8055891    
 Madelung                    :     -23973.1769131    
 xc potential                :     -1054.72642500    
 exchange                    :     -795.164444054    
 correlation                 :     -16.6698522081    
 electron entropic           :    -0.189901061749E-03
 total energy                :     -19863.0725424    
 
Density of states at Fermi energy :    52.91771828    
 (states/Hartree/unit cell)
 
Estimated indirect band gap :   0.2210750303E-02
 from k-point     46 to k-point     11
Estimated direct band gap   :   0.7604522437E-02
 at k-point      6
 
Charges :
 core                        :    144.0000000    
 valence                     :    204.0000000    
 interstitial                :    14.35513915    
 muffin-tins (core leakage)
  species :    1 (Cu)
   atom    1                 :    27.74501827     (  0.4816407429E-03)
   atom    2                 :    27.81608895     (  0.4804105671E-03)
   atom    3                 :    27.81065520     (  0.4811721758E-03)
   atom    4                 :    27.80867342     (  0.4807819502E-03)
   atom    5                 :    27.81833643     (  0.4803465166E-03)
   atom    6                 :    27.81864179     (  0.4803094798E-03)
   atom    7                 :    27.81614601     (  0.4805071144E-03)
   atom    8                 :    27.81558409     (  0.4803040758E-03)
   atom    9                 :    27.81628220     (  0.4804739287E-03)
   atom   10                 :    27.81290583     (  0.4806734522E-03)
   atom   11                 :    27.75278637     (  0.4812530658E-03)
   atom   12                 :    27.81374228     (  0.4810628027E-03)
 total in muffin-tins        :    333.6448608    
 total calculated charge     :    347.9711502    
 total charge                :    348.0000000    
 error                       :   0.2884977533E-01
 
RMS change in Kohn-Sham potential (target) :   0.2766209730E-01 (  0.1000000000E-06)
Absolute change in total energy (target)   :    7.270370043     (  0.1000000000E-04)
 
Time (CPU seconds) :      1066.29
 
+--------------------+
| Loop number :   21 |
+--------------------+
 
Energies :
 Fermi                       :     0.145552554958    
 sum of eigenvalues          :     -11406.9040418    
 electron kinetic            :      20198.1360659    
 core electron kinetic       :      17984.4106842    
 Coulomb                     :     -39247.7955224    
 Coulomb potential           :     -30550.2700008    
 nuclear-nuclear             :      14058.9499008    
 electron-nuclear            :     -76063.2208456    
 Hartree                     :      22756.4754224    
 Madelung                    :     -23972.6605220    
 xc potential                :     -1054.77010696    
 exchange                    :     -795.197418987    
 correlation                 :     -16.6699315046    
 electron entropic           :    -0.191356776140E-03
 total energy                :     -19861.5269983    
 
Density of states at Fermi energy :    53.90866634    
 (states/Hartree/unit cell)
 
Estimated indirect band gap :   0.2019140017E-02
 from k-point     52 to k-point     11
Estimated direct band gap   :   0.7602471777E-02
 at k-point      6
 
Charges :
 core                        :    144.0000000    
 valence                     :    204.0000000    
 interstitial                :    14.34206485    
 muffin-tins (core leakage)
  species :    1 (Cu)
   atom    1                 :    27.74916082     (  0.4813277507E-03)
   atom    2                 :    27.81079960     (  0.4806166022E-03)
   atom    3                 :    27.81379824     (  0.4808265111E-03)
   atom    4                 :    27.82033916     (  0.4798184211E-03)
   atom    5                 :    27.81564549     (  0.4804243389E-03)
   atom    6                 :    27.81324174     (  0.4805484779E-03)
   atom    7                 :    27.81827837     (  0.4802332221E-03)
   atom    8                 :    27.81405043     (  0.4802706857E-03)
   atom    9                 :    27.81691189     (  0.4802869609E-03)
   atom   10                 :    27.81503293     (  0.4803616892E-03)
   atom   11                 :    27.75475113     (  0.4811091739E-03)
   atom   12                 :    27.81592536     (  0.4807658842E-03)
 total in muffin-tins        :    333.6579351    
 total calculated charge     :    347.9711481    
 total charge                :    348.0000000    
 error                       :   0.2885189244E-01
 
RMS change in Kohn-Sham potential (target) :   0.1755785522E-01 (  0.1000000000E-06)
Absolute change in total energy (target)   :    3.363136663     (  0.1000000000E-04)
 
Time (CPU seconds) :      1119.40
 
+--------------------+
| Loop number :   22 |
+--------------------+
 
Energies :
 Fermi                       :     0.145759623545    
 sum of eigenvalues          :     -11406.8702085    
 electron kinetic            :      20198.7241129    
 core electron kinetic       :      17984.4113361    
 Coulomb                     :     -39248.0192913    
 Coulomb potential           :     -30550.7939185    
 nuclear-nuclear             :      14058.9499008    
 electron-nuclear            :     -76063.1444658    
 Hartree                     :      22756.1752736    
 Madelung                    :     -23972.6223321    
 xc potential                :     -1054.80040287    
 exchange                    :     -795.220255887    
 correlation                 :     -16.6700252334    
 electron entropic           :    -0.190082219643E-03
 total energy                :     -19861.1856497    
 
Density of states at Fermi energy :    53.65970147    
 (states/Hartree/unit cell)
 
Estimated indirect band gap :   0.1990875786E-02
 from k-point     52 to k-point      2
Estimated direct band gap   :   0.7649466627E-02
 at k-point      7
 
Charges :
 core                        :    144.0000000    
 valence                     :    204.0000000    
 interstitial                :    14.33351269    
 muffin-tins (core leakage)
  species :    1 (Cu)
   atom    1                 :    27.75169083     (  0.4811509777E-03)
   atom    2                 :    27.81442635     (  0.4802958318E-03)
   atom    3                 :    27.81273154     (  0.4808452106E-03)
   atom    4                 :    27.81421834     (  0.4801642081E-03)
   atom    5                 :    27.81776712     (  0.4801676934E-03)
   atom    6                 :    27.81784985     (  0.4801276541E-03)
   atom    7                 :    27.81746666     (  0.4801943460E-03)
   atom    8                 :    27.81594644     (  0.4800427539E-03)
   atom    9                 :    27.81692976     (  0.4801884697E-03)
   atom   10                 :    27.81428520     (  0.4803088156E-03)
   atom   11                 :    27.75861413     (  0.4807920321E-03)
   atom   12                 :    27.81456109     (  0.4807580846E-03)
 total in muffin-tins        :    333.6664873    
 total calculated charge     :    347.9711463    
 total charge                :    348.0000000    
 error                       :   0.2885368920E-01
 
RMS change in Kohn-Sham potential (target) :   0.1475833406E-01 (  0.1000000000E-06)
Absolute change in total energy (target)   :    1.182132770     (  0.1000000000E-04)
 
Time (CPU seconds) :      1172.50
 
+--------------------+
| Loop number :   23 |
+--------------------+
 
Energies :
 Fermi                       :     0.145887639523    
 sum of eigenvalues          :     -11406.8505997    
 electron kinetic            :      20199.0661760    
 core electron kinetic       :      17984.4158403    
 Coulomb                     :     -39248.1537225    
 Coulomb potential           :     -30551.0975319    
 nuclear-nuclear             :      14058.9499008    
 electron-nuclear            :     -76063.1097148    
 Hartree                     :      22756.0060914    
 Madelung                    :     -23972.6049566    
 xc potential                :     -1054.81924379    
 exchange                    :     -795.234454639    
 correlation                 :     -16.6700871015    
 electron entropic           :    -0.189504107325E-03
 total energy                :     -19860.9922778    
 
Density of states at Fermi energy :    53.56795198    
 (states/Hartree/unit cell)
 
Estimated indirect band gap :   0.1973091586E-02
 from k-point     46 to k-point      2
Estimated direct band gap   :   0.7658675418E-02
 at k-point      6
 
Charges :
 core                        :    144.0000000    
 valence                     :    204.0000000    
 interstitial                :    14.32802881    
 muffin-tins (core leakage)
  species :    1 (Cu)
   atom    1                 :    27.75351525     (  0.4810102743E-03)
   atom    2                 :    27.81410087     (  0.4802594417E-03)
   atom    3                 :    27.81387393     (  0.4807158686E-03)
   atom    4                 :    27.81595762     (  0.4799899991E-03)
   atom    5                 :    27.81816376     (  0.4800897219E-03)
   atom    6                 :    27.81668590     (  0.4801543001E-03)
   atom    7                 :    27.81829388     (  0.4800820612E-03)
   atom    8                 :    27.81553070     (  0.4800219915E-03)
   atom    9                 :    27.81727232     (  0.4801078343E-03)
   atom   10                 :    27.81424673     (  0.4802522513E-03)
   atom   11                 :    27.75922137     (  0.4807282390E-03)
   atom   12                 :    27.81510886     (  0.4806625701E-03)
 total in muffin-tins        :    333.6719712    
 total calculated charge     :    347.9711453    
 total charge                :    348.0000000    
 error                       :   0.2885474161E-01
 
RMS change in Kohn-Sham potential (target) :   0.1083520558E-01 (  0.1000000000E-06)
Absolute change in total energy (target)   :   0.4889050913     (  0.1000000000E-04)
 
Time (CPU seconds) :      1225.50
 
+--------------------+
| Loop number :   24 |
+--------------------+
 
Energies :
 Fermi                       :     0.145947885627    
 sum of eigenvalues          :     -11406.8491713    
 electron kinetic            :      20199.1705767    
 core electron kinetic       :      17984.4196512    
 Coulomb                     :     -39248.2527223    
 Coulomb potential           :     -30551.1869124    
 nuclear-nuclear             :      14058.9499008    
 electron-nuclear            :     -76063.2183340    
 Hartree                     :      22756.0157108    
 Madelung                    :     -23972.6592661    
 xc potential                :     -1054.83283564    
 exchange                    :     -795.244693798    
 correlation                 :     -16.6701367210    
 electron entropic           :    -0.188752726727E-03
 total energy                :     -19860.9971649    
 
Density of states at Fermi energy :    53.34484127    
 (states/Hartree/unit cell)
 
Estimated indirect band gap :   0.1982187065E-02
 from k-point     46 to k-point      2
Estimated direct band gap   :   0.7675234908E-02
 at k-point      7
 
Charges :
 core                        :    144.0000000    
 valence                     :    204.0000000    
 interstitial                :    14.32413131    
 muffin-tins (core leakage)
  species :    1 (Cu)
   atom    1                 :    27.75485446     (  0.4809184086E-03)
   atom    2                 :    27.81469270     (  0.4801797848E-03)
   atom    3                 :    27.81429222     (  0.4806611027E-03)
   atom    4                 :    27.81571489     (  0.4799664370E-03)
   atom    5                 :    27.81761893     (  0.4800891992E-03)
   atom    6                 :    27.81820071     (  0.4800062987E-03)
   atom    7                 :    27.81789902     (  0.4800747800E-03)
   atom    8                 :    27.81626029     (  0.4799278723E-03)
   atom    9                 :    27.81727992     (  0.4800667527E-03)
   atom   10                 :    27.81486897     (  0.4801602918E-03)
   atom   11                 :    27.75916937     (  0.4807072421E-03)
   atom   12                 :    27.81501723     (  0.4806285358E-03)
 total in muffin-tins        :    333.6758687    
 total calculated charge     :    347.9711445    
 total charge                :    348.0000000    
 error                       :   0.2885554682E-01
 
RMS change in Kohn-Sham potential (target) :   0.7804033969E-02 (  0.1000000000E-06)
Absolute change in total energy (target)   :   0.1173391497     (  0.1000000000E-04)
 
Time (CPU seconds) :      1278.82
 
+--------------------+
| Loop number :   25 |
+--------------------+
 
Energies :
 Fermi                       :     0.145962640589    
 sum of eigenvalues          :     -11406.8579535    
 electron kinetic            :      20199.2065727    
 core electron kinetic       :      17984.4159723    
 Coulomb                     :     -39248.3130154    
 Coulomb potential           :     -30551.2238919    
 nuclear-nuclear             :      14058.9499008    
 electron-nuclear            :     -76063.3019406    
 Hartree                     :      22756.0390244    
 Madelung                    :     -23972.7010695    
 xc potential                :     -1054.84063435    
 exchange                    :     -795.250566126    
 correlation                 :     -16.6701688251    
 electron entropic           :    -0.188386008574E-03
 total energy                :     -19861.0273661    
 
Density of states at Fermi energy :    53.24446880    
 (states/Hartree/unit cell)
 
Estimated indirect band gap :   0.1984197395E-02
 from k-point     52 to k-point      2
Estimated direct band gap   :   0.7678240759E-02
 at k-point      7
 
Charges :
 core                        :    144.0000000    
 valence                     :    204.0000000    
 interstitial                :    14.32203011    
 muffin-tins (core leakage)
  species :    1 (Cu)
   atom    1                 :    27.75570215     (  0.4808606349E-03)
   atom    2                 :    27.81456833     (  0.4801647341E-03)
   atom    3                 :    27.81481211     (  0.4806105709E-03)
   atom    4                 :    27.81618383     (  0.4799152872E-03)
   atom    5                 :    27.81863737     (  0.4799942786E-03)
   atom    6                 :    27.81709397     (  0.4800590337E-03)
   atom    7                 :    27.81849238     (  0.4800049436E-03)
   atom    8                 :    27.81592857     (  0.4799328320E-03)
   atom    9                 :    27.81754901     (  0.4800236608E-03)
   atom   10                 :    27.81448270     (  0.4801659668E-03)
   atom   11                 :    27.75921434     (  0.4806812699E-03)
   atom   12                 :    27.81530513     (  0.4805837333E-03)
 total in muffin-tins        :    333.6779699    
 total calculated charge     :    347.9711439    
 total charge                :    348.0000000    
 error                       :   0.2885606544E-01
 
RMS change in Kohn-Sham potential (target) :   0.5811268574E-02 (  0.1000000000E-06)
Absolute change in total energy (target)   :   0.8663775807E-03 (  0.1000000000E-04)
 
Time (CPU seconds) :      1332.11
 
+--------------------+
| Loop number :   26 |
+--------------------+
 
Energies :
 Fermi                       :     0.145970971221    
 sum of eigenvalues          :     -11406.8576996    
 electron kinetic            :      20199.2784639    
 core electron kinetic       :      17984.4152654    
 Coulomb                     :     -39248.3250368    
 Coulomb potential           :     -30551.2941357    
 nuclear-nuclear             :      14058.9499008    
 electron-nuclear            :     -76063.2557395    
 Hartree                     :      22755.9808019    
 Madelung                    :     -23972.6779689    
 xc potential                :     -1054.84202777    
 exchange                    :     -795.251614474    
 correlation                 :     -16.6701763157    
 electron entropic           :    -0.188328500658E-03
 total energy                :     -19860.9685520    
 
Density of states at Fermi energy :    53.23132935    
 (states/Hartree/unit cell)
 
Estimated indirect band gap :   0.1983489224E-02
 from k-point     52 to k-point     11
Estimated direct band gap   :   0.7680267995E-02
 at k-point      7
 
Charges :
 core                        :    144.0000000    
 valence                     :    204.0000000    
 interstitial                :    14.32172206    
 muffin-tins (core leakage)
  species :    1 (Cu)
   atom    1                 :    27.75642911     (  0.4808203288E-03)
   atom    2                 :    27.81470199     (  0.4801488551E-03)
   atom    3                 :    27.81499440     (  0.4805969204E-03)
   atom    4                 :    27.81599830     (  0.4799226359E-03)
   atom    5                 :    27.81802480     (  0.4800328512E-03)
   atom    6                 :    27.81768809     (  0.4800118234E-03)
   atom    7                 :    27.81838970     (  0.4800085853E-03)
   atom    8                 :    27.81602245     (  0.4799203998E-03)
   atom    9                 :    27.81748001     (  0.4800231807E-03)
   atom   10                 :    27.81465703     (  0.4801468377E-03)
   atom   11                 :    27.75869862     (  0.4807069397E-03)
   atom   12                 :    27.81519343     (  0.4805868802E-03)
 total in muffin-tins        :    333.6782779    
 total calculated charge     :    347.9711438    
 total charge                :    348.0000000    
 error                       :   0.2885619545E-01
 
RMS change in Kohn-Sham potential (target) :   0.3586562022E-02 (  0.1000000000E-06)
Absolute change in total energy (target)   :   0.5859744402E-01 (  0.1000000000E-04)
 
Time (CPU seconds) :      1385.05
 
+--------------------+
| Loop number :   27 |
+--------------------+
 
Energies :
 Fermi                       :     0.145978265287    
 sum of eigenvalues          :     -11406.8536425    
 electron kinetic            :      20199.3474513    
 core electron kinetic       :      17984.4157971    
 Coulomb                     :     -39248.3156472    
 Coulomb potential           :     -30551.3606683    
 nuclear-nuclear             :      14058.9499008    
 electron-nuclear            :     -76063.1704277    
 Hartree                     :      22755.9048797    
 Madelung                    :     -23972.6353130    
 xc potential                :     -1054.84042551    
 exchange                    :     -795.250407756    
 correlation                 :     -16.6701710495    
 electron entropic           :    -0.188539955636E-03
 total energy                :     -19860.8889632    
 
Density of states at Fermi energy :    53.31346634    
 (states/Hartree/unit cell)
 
Estimated indirect band gap :   0.1974830428E-02
 from k-point     52 to k-point     11
Estimated direct band gap   :   0.7676459581E-02
 at k-point      6
 
Charges :
 core                        :    144.0000000    
 valence                     :    204.0000000    
 interstitial                :    14.32229886    
 muffin-tins (core leakage)
  species :    1 (Cu)
   atom    1                 :    27.75688202     (  0.4808006519E-03)
   atom    2                 :    27.81460671     (  0.4801565306E-03)
   atom    3                 :    27.81506202     (  0.4805973958E-03)
   atom    4                 :    27.81604335     (  0.4799234063E-03)
   atom    5                 :    27.81851476     (  0.4800016547E-03)
   atom    6                 :    27.81721519     (  0.4800461435E-03)
   atom    7                 :    27.81801226     (  0.4800371597E-03)
   atom    8                 :    27.81607417     (  0.4799202976E-03)
   atom    9                 :    27.81738407     (  0.4800339649E-03)
   atom   10                 :    27.81454301     (  0.4801581821E-03)
   atom   11                 :    27.75823645     (  0.4807338322E-03)
   atom   12                 :    27.81512713     (  0.4805951295E-03)
 total in muffin-tins        :    333.6777011    
 total calculated charge     :    347.9711438    
 total charge                :    348.0000000    
 error                       :   0.2885618184E-01
 
RMS change in Kohn-Sham potential (target) :   0.2098072400E-02 (  0.1000000000E-06)
Absolute change in total energy (target)   :   0.9423821413E-01 (  0.1000000000E-04)
 
Time (CPU seconds) :      1438.26
 
+--------------------+
| Loop number :   28 |
+--------------------+
 
Energies :
 Fermi                       :     0.145983030471    
 sum of eigenvalues          :     -11406.8483827    
 electron kinetic            :      20199.4083420    
 core electron kinetic       :      17984.4161152    
 Coulomb                     :     -39248.3000392    
 Coulomb potential           :     -30551.4186184    
 nuclear-nuclear             :      14058.9499008    
 electron-nuclear            :     -76063.0812617    
 Hartree                     :      22755.8313217    
 Madelung                    :     -23972.5907300    
 xc potential                :     -1054.83810631    
 exchange                    :     -795.248661356    
 correlation                 :     -16.6701624110    
 electron entropic           :    -0.188760688571E-03
 total energy                :     -19860.8107097    
 
Density of states at Fermi energy :    53.39237748    
 (states/Hartree/unit cell)
 
Estimated indirect band gap :   0.1967666164E-02
 from k-point     46 to k-point      2
Estimated direct band gap   :   0.7674676646E-02
 at k-point      6
 
Charges :
 core                        :    144.0000000    
 valence                     :    204.0000000    
 interstitial                :    14.32303808    
 muffin-tins (core leakage)
  species :    1 (Cu)
   atom    1                 :    27.75715472     (  0.4807905551E-03)
   atom    2                 :    27.81450608     (  0.4801686680E-03)
   atom    3                 :    27.81504518     (  0.4806043480E-03)
   atom    4                 :    27.81583168     (  0.4799436299E-03)
   atom    5                 :    27.81772649     (  0.4800619668E-03)
   atom    6                 :    27.81757894     (  0.4800270949E-03)
   atom    7                 :    27.81851223     (  0.4800070723E-03)
   atom    8                 :    27.81574039     (  0.4799501073E-03)
   atom    9                 :    27.81736768     (  0.4800394643E-03)
   atom   10                 :    27.81447909     (  0.4801694065E-03)
   atom   11                 :    27.75796128     (  0.4807510678E-03)
   atom   12                 :    27.81505816     (  0.4806049815E-03)
 total in muffin-tins        :    333.6769619    
 total calculated charge     :    347.9711439    
 total charge                :    348.0000000    
 error                       :   0.2885610299E-01
 
RMS change in Kohn-Sham potential (target) :   0.1175676826E-02 (  0.1000000000E-06)
Absolute change in total energy (target)   :   0.1018129869     (  0.1000000000E-04)
 
Time (CPU seconds) :      1491.23
 
+--------------------+
| Loop number :   29 |
+--------------------+
 
Energies :
 Fermi                       :     0.145991920204    
 sum of eigenvalues          :     -11406.8422711    
 electron kinetic            :      20199.4556650    
 core electron kinetic       :      17984.4173925    
 Coulomb                     :     -39248.2862221    
 Coulomb potential           :     -30551.4618023    
 nuclear-nuclear             :      14058.9499008    
 electron-nuclear            :     -76063.0104436    
 Hartree                     :      22755.7743206    
 Madelung                    :     -23972.5553210    
 xc potential                :     -1054.83613376    
 exchange                    :     -795.247176619    
 correlation                 :     -16.6701542106    
 electron entropic           :    -0.188974290073E-03
 total energy                :     -19860.7480770    
 
Density of states at Fermi energy :    53.47260556    
 (states/Hartree/unit cell)
 
Estimated indirect band gap :   0.1959842361E-02
[...]
   atom    6                 :    27.81724326     (  0.4800571911E-03)
   atom    7                 :    27.81808059     (  0.4800451109E-03)
   atom    8                 :    27.81580720     (  0.4799531861E-03)
   atom    9                 :    27.81724172     (  0.4800570708E-03)
   atom   10                 :    27.81439712     (  0.4801832719E-03)
   atom   11                 :    27.75747854     (  0.4807815853E-03)
   atom   12                 :    27.81495461     (  0.4806200735E-03)
 total in muffin-tins        :    333.6758757    
 total calculated charge     :    347.9711440    
 total charge                :    348.0000000    
 error                       :   0.2885598855E-01
 
RMS change in Kohn-Sham potential (target) :   0.5236640159E-06 (  0.1000000000E-06)
Absolute change in total energy (target)   :   0.1394647188E-03 (  0.1000000000E-04)
 
Time (CPU seconds) :      2128.76
 
+--------------------+
| Loop number :   41 |
+--------------------+
 
Energies :
 Fermi                       :     0.146006876730    
 sum of eigenvalues          :     -11406.8343236    
 electron kinetic            :      20199.4922056    
 core electron kinetic       :      17984.4193769    
 Coulomb                     :     -39248.2764348    
 Coulomb potential           :     -30551.4918279    
 nuclear-nuclear             :      14058.9499008    
 electron-nuclear            :     -76062.9608434    
 Hartree                     :      22755.7345077    
 Madelung                    :     -23972.5305208    
 xc potential                :     -1054.83470131    
 exchange                    :     -795.246099831    
 correlation                 :     -16.6701467341    
 electron entropic           :    -0.189218485731E-03
 total energy                :     -19860.7006650    
 
Density of states at Fermi energy :    53.56309114    
 (states/Hartree/unit cell)
 
Estimated indirect band gap :   0.1951188827E-02
 from k-point     52 to k-point     11
Estimated direct band gap   :   0.7670119214E-02
 at k-point      6
 
Charges :
 core                        :    144.0000000    
 valence                     :    204.0000000    
 interstitial                :    14.32412310    
 muffin-tins (core leakage)
  species :    1 (Cu)
   atom    1                 :    27.75746214     (  0.4807787465E-03)
   atom    2                 :    27.81439264     (  0.4801831236E-03)
   atom    3                 :    27.81492913     (  0.4806189231E-03)
   atom    4                 :    27.81580907     (  0.4799531791E-03)
   atom    5                 :    27.81808041     (  0.4800450440E-03)
   atom    6                 :    27.81724332     (  0.4800571875E-03)
   atom    7                 :    27.81808066     (  0.4800450949E-03)
   atom    8                 :    27.81580726     (  0.4799531235E-03)
   atom    9                 :    27.81724182     (  0.4800570655E-03)
   atom   10                 :    27.81439723     (  0.4801832418E-03)
   atom   11                 :    27.75747864     (  0.4807816051E-03)
   atom   12                 :    27.81495457     (  0.4806201170E-03)
 total in muffin-tins        :    333.6758769    
 total calculated charge     :    347.9711440    
 total charge                :    348.0000000    
 error                       :   0.2885598911E-01
 
RMS change in Kohn-Sham potential (target) :   0.2228113166E-06 (  0.1000000000E-06)
Absolute change in total energy (target)   :   0.9176808089E-04 (  0.1000000000E-04)
 
Time (CPU seconds) :      2182.06
 
+--------------------+
| Loop number :   42 |
+--------------------+
 
Energies :
 Fermi                       :     0.146006894567    
 sum of eigenvalues          :     -11406.8343195    
 electron kinetic            :      20199.4922126    
 core electron kinetic       :      17984.4193747    
 Coulomb                     :     -39248.2764425    
 Coulomb potential           :     -30551.4918297    
 nuclear-nuclear             :      14058.9499008    
 electron-nuclear            :     -76062.9608570    
 Hartree                     :      22755.7345137    
 Madelung                    :     -23972.5305277    
 xc potential                :     -1054.83470231    
 exchange                    :     -795.246100587    
 correlation                 :     -16.6701467362    
 electron entropic           :    -0.189218402094E-03
 total energy                :     -19860.7006665    
 
Density of states at Fermi energy :    53.56306320    
 (states/Hartree/unit cell)
 
Estimated indirect band gap :   0.1951190851E-02
 from k-point     46 to k-point      2
Estimated direct band gap   :   0.7670120168E-02
 at k-point      7
 
Charges :
 core                        :    144.0000000    
 valence                     :    204.0000000    
 interstitial                :    14.32412276    
 muffin-tins (core leakage)
  species :    1 (Cu)
   atom    1                 :    27.75746218     (  0.4807788242E-03)
   atom    2                 :    27.81439267     (  0.4801830845E-03)
   atom    3                 :    27.81492920     (  0.4806188504E-03)
   atom    4                 :    27.81580909     (  0.4799531804E-03)
   atom    5                 :    27.81808043     (  0.4800450285E-03)
   atom    6                 :    27.81724333     (  0.4800571423E-03)
   atom    7                 :    27.81808068     (  0.4800450430E-03)
   atom    8                 :    27.81580728     (  0.4799531132E-03)
   atom    9                 :    27.81724183     (  0.4800571207E-03)
   atom   10                 :    27.81439724     (  0.4801832575E-03)
   atom   11                 :    27.75747870     (  0.4807815947E-03)
   atom   12                 :    27.81495460     (  0.4806201221E-03)
 total in muffin-tins        :    333.6758772    
 total calculated charge     :    347.9711440    
 total charge                :    348.0000000    
 error                       :   0.2885598915E-01
 
RMS change in Kohn-Sham potential (target) :   0.2726424950E-06 (  0.1000000000E-06)
Absolute change in total energy (target)   :   0.2446254075E-04 (  0.1000000000E-04)
 
Time (CPU seconds) :      2235.04
 
+--------------------+
| Loop number :   43 |
+--------------------+
 
Energies :
 Fermi                       :     0.146006921620    
 sum of eigenvalues          :     -11406.8343104    
 electron kinetic            :      20199.4922090    
 core electron kinetic       :      17984.4193773    
 Coulomb                     :     -39248.2764426    
 Coulomb potential           :     -30551.4918171    
 nuclear-nuclear             :      14058.9499008    
 electron-nuclear            :     -76062.9608697    
 Hartree                     :      22755.7345263    
 Madelung                    :     -23972.5305340    
 xc potential                :     -1054.83470228    
 exchange                    :     -795.246100559    
 correlation                 :     -16.6701467357    
 electron entropic           :    -0.189218377018E-03
 total energy                :     -19860.7006701    
 
Density of states at Fermi energy :    53.56305055    
 (states/Hartree/unit cell)
 
Estimated indirect band gap :   0.1951192791E-02
 from k-point     46 to k-point     11
Estimated direct band gap   :   0.7670120383E-02
 at k-point      7
 
Charges :
 core                        :    144.0000000    
 valence                     :    204.0000000    
 interstitial                :    14.32412277    
 muffin-tins (core leakage)
  species :    1 (Cu)
   atom    1                 :    27.75746214     (  0.4807787669E-03)
   atom    2                 :    27.81439267     (  0.4801830750E-03)
   atom    3                 :    27.81492920     (  0.4806188517E-03)
   atom    4                 :    27.81580910     (  0.4799531889E-03)
   atom    5                 :    27.81808044     (  0.4800449603E-03)
   atom    6                 :    27.81724334     (  0.4800571683E-03)
   atom    7                 :    27.81808068     (  0.4800450632E-03)
   atom    8                 :    27.81580728     (  0.4799531589E-03)
   atom    9                 :    27.81724183     (  0.4800571154E-03)
   atom   10                 :    27.81439724     (  0.4801832057E-03)
   atom   11                 :    27.75747870     (  0.4807815904E-03)
   atom   12                 :    27.81495459     (  0.4806201232E-03)
 total in muffin-tins        :    333.6758772    
 total calculated charge     :    347.9711440    
 total charge                :    348.0000000    
 error                       :   0.2885598907E-01
 
RMS change in Kohn-Sham potential (target) :   0.1641612919E-06 (  0.1000000000E-06)
Absolute change in total energy (target)   :   0.9719577065E-05 (  0.1000000000E-04)
 
Time (CPU seconds) :      2288.08
 
+--------------------+
| Loop number :   44 |
+--------------------+
 
Energies :
 Fermi                       :     0.146006929167    
 sum of eigenvalues          :     -11406.8343068    
 electron kinetic            :      20199.4922044    
 core electron kinetic       :      17984.4193781    
 Coulomb                     :     -39248.2764375    
 Coulomb potential           :     -30551.4918095    
 nuclear-nuclear             :      14058.9499008    
 electron-nuclear            :     -76062.9608672    
 Hartree                     :      22755.7345289    
 Madelung                    :     -23972.5305328    
 xc potential                :     -1054.83470160    
 exchange                    :     -795.246100045    
 correlation                 :     -16.6701467342    
 electron entropic           :    -0.189218377396E-03
 total energy                :     -19860.7006692    
 
Density of states at Fermi energy :    53.56304692    
 (states/Hartree/unit cell)
 
Estimated indirect band gap :   0.1951193931E-02
 from k-point     52 to k-point     11
Estimated direct band gap   :   0.7670119653E-02
 at k-point      6
 
Charges :
 core                        :    144.0000000    
 valence                     :    204.0000000    
 interstitial                :    14.32412296    
 muffin-tins (core leakage)
  species :    1 (Cu)
   atom    1                 :    27.75746210     (  0.4807787976E-03)
   atom    2                 :    27.81439266     (  0.4801830448E-03)
   atom    3                 :    27.81492918     (  0.4806188323E-03)
   atom    4                 :    27.81580909     (  0.4799531857E-03)
   atom    5                 :    27.81808042     (  0.4800449505E-03)
   atom    6                 :    27.81724333     (  0.4800571596E-03)
   atom    7                 :    27.81808067     (  0.4800450772E-03)
   atom    8                 :    27.81580727     (  0.4799531348E-03)
   atom    9                 :    27.81724182     (  0.4800571143E-03)
   atom   10                 :    27.81439724     (  0.4801832662E-03)
   atom   11                 :    27.75747867     (  0.4807815997E-03)
   atom   12                 :    27.81495459     (  0.4806201763E-03)
 total in muffin-tins        :    333.6758770    
 total calculated charge     :    347.9711440    
 total charge                :    348.0000000    
 error                       :   0.2885598900E-01
 
RMS change in Kohn-Sham potential (target) :   0.1005715498E-06 (  0.1000000000E-06)
Absolute change in total energy (target)   :   0.1512147719E-05 (  0.1000000000E-04)
 
Time (CPU seconds) :      2341.22
 
+--------------------+
| Loop number :   45 |
+--------------------+
 
Energies :
 Fermi                       :     0.146006932096    
 sum of eigenvalues          :     -11406.8343057    
 electron kinetic            :      20199.4921915    
 core electron kinetic       :      17984.4193775    
 Coulomb                     :     -39248.2764367    
 Coulomb potential           :     -30551.4917957    
 nuclear-nuclear             :      14058.9499008    
 electron-nuclear            :     -76062.9608794    
 Hartree                     :      22755.7345419    
 Madelung                    :     -23972.5305389    
 xc potential                :     -1054.83470150    
 exchange                    :     -795.246099971    
 correlation                 :     -16.6701467346    
 electron entropic           :    -0.189218354283E-03
 total energy                :     -19860.7006812    
 
Density of states at Fermi energy :    53.56303571    
 (states/Hartree/unit cell)
 
Estimated indirect band gap :   0.1951195565E-02
 from k-point     46 to k-point     11
Estimated direct band gap   :   0.7670119660E-02
 at k-point      6
 
Charges :
 core                        :    144.0000000    
 valence                     :    204.0000000    
 interstitial                :    14.32412299    
 muffin-tins (core leakage)
  species :    1 (Cu)
   atom    1                 :    27.75746208     (  0.4807787977E-03)
   atom    2                 :    27.81439266     (  0.4801830460E-03)
   atom    3                 :    27.81492917     (  0.4806188222E-03)
   atom    4                 :    27.81580909     (  0.4799532033E-03)
   atom    5                 :    27.81808043     (  0.4800450430E-03)
   atom    6                 :    27.81724333     (  0.4800571730E-03)
   atom    7                 :    27.81808067     (  0.4800451094E-03)
   atom    8                 :    27.81580727     (  0.4799531200E-03)
   atom    9                 :    27.81724183     (  0.4800571357E-03)
   atom   10                 :    27.81439724     (  0.4801831533E-03)
   atom   11                 :    27.75747864     (  0.4807816545E-03)
   atom   12                 :    27.81495459     (  0.4806201613E-03)
 total in muffin-tins        :    333.6758770    
 total calculated charge     :    347.9711440    
 total charge                :    348.0000000    
 error                       :   0.2885598910E-01
 
RMS change in Kohn-Sham potential (target) :   0.2685838116E-07 (  0.1000000000E-06)
Absolute change in total energy (target)   :   0.1234862430E-04 (  0.1000000000E-04)
 
Time (CPU seconds) :      2394.00
 
+--------------------+
| Loop number :   46 |
+--------------------+
 
Energies :
 Fermi                       :     0.146006937356    
 sum of eigenvalues          :     -11406.8343033    
 electron kinetic            :      20199.4921890    
 core electron kinetic       :      17984.4193784    
 Coulomb                     :     -39248.2764342    
 Coulomb potential           :     -30551.4917910    
 nuclear-nuclear             :      14058.9499008    
 electron-nuclear            :     -76062.9608790    
 Hartree                     :      22755.7345440    
 Madelung                    :     -23972.5305386    
 xc potential                :     -1054.83470125    
 exchange                    :     -795.246099784    
 correlation                 :     -16.6701467335    
 electron entropic           :    -0.189218347583E-03
 total energy                :     -19860.7006809    
 
Density of states at Fermi energy :    53.56303194    
 (states/Hartree/unit cell)
 
Estimated indirect band gap :   0.1951196198E-02
 from k-point     46 to k-point      2
Estimated direct band gap   :   0.7670119582E-02
 at k-point      7
 
Charges :
 core                        :    144.0000000    
 valence                     :    204.0000000    
 interstitial                :    14.32412304    
 muffin-tins (core leakage)
  species :    1 (Cu)
   atom    1                 :    27.75746207     (  0.4807787703E-03)
   atom    2                 :    27.81439267     (  0.4801830725E-03)
   atom    3                 :    27.81492915     (  0.4806188534E-03)
   atom    4                 :    27.81580908     (  0.4799531995E-03)
   atom    5                 :    27.81808042     (  0.4800449878E-03)
   atom    6                 :    27.81724333     (  0.4800571593E-03)
   atom    7                 :    27.81808068     (  0.4800450032E-03)
   atom    8                 :    27.81580727     (  0.4799531185E-03)
   atom    9                 :    27.81724183     (  0.4800570584E-03)
   atom   10                 :    27.81439724     (  0.4801832220E-03)
   atom   11                 :    27.75747863     (  0.4807816792E-03)
   atom   12                 :    27.81495459     (  0.4806201640E-03)
 total in muffin-tins        :    333.6758770    
 total calculated charge     :    347.9711440    
 total charge                :    348.0000000    
 error                       :   0.2885598889E-01
 
RMS change in Kohn-Sham potential (target) :   0.5791893467E-07 (  0.1000000000E-06)
Absolute change in total energy (target)   :   0.2845670679E-05 (  0.1000000000E-04)
 
Convergence targets achieved
 
Time (CPU seconds) :      2447.13
 
+--------------------+
| Loop number :   47 |
+--------------------+
 
Energies :
 Fermi                       :     0.146006937639    
 sum of eigenvalues          :     -11406.8343032    
 electron kinetic            :      20199.4921941    
 core electron kinetic       :      17984.4193790    
 Coulomb                     :     -39248.2764345    
 Coulomb potential           :     -30551.4917960    
 nuclear-nuclear             :      14058.9499008    
 electron-nuclear            :     -76062.9608746    
 Hartree                     :      22755.7345393    
 Madelung                    :     -23972.5305364    
 xc potential                :     -1054.83470126    
 exchange                    :     -795.246099789    
 correlation                 :     -16.6701467339    
 electron entropic           :    -0.189218358281E-03
 total energy                :     -19860.7006761    
 
Density of states at Fermi energy :    53.56303651    
 (states/Hartree/unit cell)
 
Estimated indirect band gap :   0.1951195630E-02
 from k-point     46 to k-point     11
Estimated direct band gap   :   0.7670119403E-02
 at k-point      7
 
Charges :
 core                        :    144.0000000    
 valence                     :    204.0000000    
 interstitial                :    14.32412305    
 muffin-tins (core leakage)
  species :    1 (Cu)
   atom    1                 :    27.75746208     (  0.4807788237E-03)
   atom    2                 :    27.81439265     (  0.4801831346E-03)
   atom    3                 :    27.81492917     (  0.4806188225E-03)
   atom    4                 :    27.81580908     (  0.4799531836E-03)
   atom    5                 :    27.81808042     (  0.4800450388E-03)
   atom    6                 :    27.81724333     (  0.4800571569E-03)
   atom    7                 :    27.81808067     (  0.4800451240E-03)
   atom    8                 :    27.81580727     (  0.4799531068E-03)
   atom    9                 :    27.81724182     (  0.4800571346E-03)
   atom   10                 :    27.81439724     (  0.4801832494E-03)
   atom   11                 :    27.75747862     (  0.4807816427E-03)
   atom   12                 :    27.81495459     (  0.4806200966E-03)
 total in muffin-tins        :    333.6758770    
 total calculated charge     :    347.9711440    
 total charge                :    348.0000000    
 error                       :   0.2885598913E-01
 
+------------------------------+
| Self-consistent loop stopped |
+------------------------------+
 
Wrote STATE.OUT
 
Timings (CPU seconds) :
 initialisation                        :         2.76
 Hamiltonian and overlap matrix set up :       175.73
 first-variational eigenvalue equation :      2175.48
 charge density calculation            :        53.90
 potential calculation                 :        92.46
 total                                 :      2500.33
 
+----------------------------+
| Elk version 7.2.42 stopped |
+----------------------------+
