+----------------------------+
| Elk version 7.2.42 started |
+----------------------------+
 
Date (YYYY-MM-DD) : 2024-03-23
Time (hh:mm:ss)   : 20:37:11
 
Using MPI, number of processes :       16
 
All units are atomic (Hartree, Bohr, etc.)
 
+-------------------------------------------------+
| Ground-state run starting from atomic densities |
+-------------------------------------------------+
 
Lattice vectors :
   5.399136529       0.000000000       0.000000000    
   2.699568265       4.675789393       0.000000000    
   0.000000000       0.000000000       71.79749648    
 
Reciprocal lattice vectors :
   1.163738919     -0.6718849781       0.000000000    
   0.000000000       1.343769956       0.000000000    
   0.000000000       0.000000000      0.8751259606E-01
 
Unit cell volume      :    1812.543976    
Brillouin zone volume :   0.1368519698    
 
Muffin-tin inner radius fraction :   0.1000000000E-01
 
Species :    1 (Al)
 parameters loaded from : Al.in
 name : aluminium
 nuclear charge    :   -13.00000000    
 electronic charge :    13.00000000    
 atomic mass :    49184.33492    
 muffin-tin radius :    2.000000000    
 number of radial points in muffin-tin :    597
 number on inner part of muffin-tin    :    417
 atomic positions (lattice), magnetic fields (Cartesian) :
   1 :   0.00000000  0.00000000  0.00000000    0.00000000  0.00000000  0.00000000
   2 :   0.66666996  0.66667002  0.12301174    0.00000000  0.00000000  0.00000000
   3 :   0.33332998  0.33333000  0.06188683    0.00000000  0.00000000  0.00000000
   4 :   0.00000000  0.00000000  0.18454150    0.00000000  0.00000000  0.00000000
   5 :   0.66666996  0.66667002  0.30722021    0.00000000  0.00000000  0.00000000
   6 :   0.33332998  0.33333000  0.24607829    0.00000000  0.00000000  0.00000000
   7 :   0.00000000  0.00000000  0.36881157    0.00000000  0.00000000  0.00000000
   8 :   0.66666996  0.66667002  0.49149033    0.00000000  0.00000000  0.00000000
   9 :   0.33332998  0.33333000  0.42995286    0.00000000  0.00000000  0.00000000
  10 :   0.00000000  0.00000000  0.55302006    0.00000000  0.00000000  0.00000000
  11 :   0.66666996  0.66667002  0.67603160    0.00000000  0.00000000  0.00000000
  12 :   0.33332998  0.33333000  0.61414432    0.00000000  0.00000000  0.00000000
 
Total number of atoms per unit cell :   12
 
Spin treatment :
 spin-unpolarised
 
Number of Bravais lattice symmetries :   24
Number of crystal symmetries         :    2
Crystal has no inversion symmetry
Complex Hermitian eigensolver will be used
 
k-point grid :     11    11     1
k-point offset :    0.000000000       0.000000000       0.000000000    
k-point set is reduced with full crystal symmetry group
Total number of k-points :       66
 
Muffin-tin radius times maximum |G+k| :    8.000000000    
 using average radius
Maximum |G+k| for APW functions       :    4.000000000    
Maximum (1/2)|G+k|²                   :    8.000000000    
Maximum |G| for potential and density :    16.00000000    
Constant for pseudocharge density :    8
Radial integration step length :    4
 
G-vector grid sizes :     30    30   375
Number of G-vectors :   125447
 
Maximum angular momentum used for
 APW functions                      :    9
 outer part of muffin-tin           :    7
 inner part of muffin-tin           :    1
 
Total nuclear charge    :   -156.0000000    
Total core charge       :    48.00000000    
Total valence charge    :    108.0000000    
Total excess charge     :    0.000000000    
Total electronic charge :    156.0000000    
 
Effective Wigner radius, rₛ :    1.405050007    
 
Number of empty states         :  120
Total number of valence states :  175
Total number of core states    :   48
 
Conduction state local-orbitals added automatically
Total number of local-orbitals :  996
 
Exchange-correlation functional :     20     0     0
 Perdew-Burke-Ernzerhof, Phys. Rev. Lett. 77, 3865 (1996)
 Generalised gradient approximation (GGA)
 
Smearing type :    3
 Fermi-Dirac
Smearing width :   0.1000000000E-02
Effective electronic temperature (K) :    315.7750248    
 
Mixing type :    3
 Broyden mixing, J. Phys. A: Math. Gen. 17, L317 (1984)
 
Kohn-Sham potential initialised from atomic data
 
+------------------------------+
| Self-consistent loop started |
+------------------------------+
 
+--------------------+
| Loop number :    1 |
+--------------------+
 
Energies :
 Fermi                       :     0.107052711746    
 sum of eigenvalues          :     -1578.02769589    
 electron kinetic            :      2822.54244344    
 core electron kinetic       :      2171.14921510    
 Coulomb                     :     -5608.67924665    
 Coulomb potential           :     -4111.86978267    
 nuclear-nuclear             :      2008.30440029    
 electron-nuclear            :     -11122.0975112    
 Hartree                     :      3505.11386427    
 Madelung                    :     -3552.74435531    
 xc potential                :     -288.700356658    
 exchange                    :     -217.668910117    
 correlation                 :     -6.10851338703    
 electron entropic           :    -0.596619790491E-03
 total energy                :     -3009.91482334    
 
Density of states at Fermi energy :    193.6073011    
 (states/Hartree/unit cell)
 
Estimated indirect band gap :   0.2370483989E-03
 from k-point     33 to k-point     46
Estimated direct band gap   :   0.2341671922E-02
 at k-point     47
 
Charges :
 core                        :    48.00000000    
 valence                     :    108.0000000    
 interstitial                :    25.71023478    
 muffin-tins (core leakage)
  species :    1 (Al)
   atom    1                 :    10.73197761     (  0.1359705820E-02)
   atom    2                 :    10.87883419     (  0.1377617476E-02)
   atom    3                 :    10.86599869     (  0.1377046149E-02)
   atom    4                 :    10.88932326     (  0.1377155092E-02)
   atom    5                 :    10.89015403     (  0.1377538538E-02)
   atom    6                 :    10.88853791     (  0.1377596234E-02)
   atom    7                 :    10.89011600     (  0.1377539256E-02)
   atom    8                 :    10.88932682     (  0.1377154431E-02)
   atom    9                 :    10.88857079     (  0.1377596188E-02)
   atom   10                 :    10.87883754     (  0.1377618253E-02)
   atom   11                 :    10.73202886     (  0.1359705293E-02)
   atom   12                 :    10.86605952     (  0.1377046424E-02)
 total in muffin-tins        :    130.2897652    
 total calculated charge     :    155.9563116    
 total charge                :    156.0000000    
 error                       :   0.4368840647E-01
 
Time (CPU seconds) :      1228.25
 
+--------------------+
| Loop number :    2 |
+--------------------+
 
Energies :
 Fermi                       :     0.111319475098    
 sum of eigenvalues          :     -1577.17922358    
 electron kinetic            :      2880.89782110    
 core electron kinetic       :      2171.31810134    
 Coulomb                     :     -5609.59071962    
 Coulomb potential           :     -4169.39736274    
 nuclear-nuclear             :      2008.30440029    
 electron-nuclear            :     -11066.3928771    
 Hartree                     :      3448.49775717    
 Madelung                    :     -3524.89203825    
 xc potential                :     -288.679681941    
 exchange                    :     -217.656063617    
 correlation                 :     -6.10590373421    
 electron entropic           :    -0.566260216244E-03
 total energy                :     -2952.45543213    
 
Density of states at Fermi energy :    181.9250502    
 (states/Hartree/unit cell)
 
Estimated indirect band gap :   0.5647651186E-03
 from k-point     47 to k-point     49
Estimated direct band gap   :   0.1741386297E-02
 at k-point     47
 
Charges :
 core                        :    48.00000000    
 valence                     :    108.0000000    
 interstitial                :    25.71689807    
 muffin-tins (core leakage)
  species :    1 (Al)
   atom    1                 :    10.78730155     (  0.1359102886E-02)
   atom    2                 :    10.88121373     (  0.1377226278E-02)
   atom    3                 :    10.89130720     (  0.1376621197E-02)
   atom    4                 :    10.86976642     (  0.1376802630E-02)
   atom    5                 :    10.85300872     (  0.1377184636E-02)
   atom    6                 :    10.85896992     (  0.1377234851E-02)
   atom    7                 :    10.85296786     (  0.1377185250E-02)
   atom    8                 :    10.86975035     (  0.1376801877E-02)
   atom    9                 :    10.85899132     (  0.1377234850E-02)
   atom   10                 :    10.88118403     (  0.1377227136E-02)
   atom   11                 :    10.78730786     (  0.1359102469E-02)
   atom   12                 :    10.89133298     (  0.1376621613E-02)
 total in muffin-tins        :    130.2831019    
 total calculated charge     :    155.9563139    
 total charge                :    156.0000000    
 error                       :   0.4368613269E-01
 
RMS change in Kohn-Sham potential (target) :   0.6234109984     (  0.1000000000E-06)
Absolute change in total energy (target)   :    57.45939121     (  0.1000000000E-04)
 
Time (CPU seconds) :      2056.88
 
+--------------------+
| Loop number :    3 |
+--------------------+
 
Energies :
 Fermi                       :     0.113208803357    
 sum of eigenvalues          :     -1576.92852145    
 electron kinetic            :      2775.29704577    
 core electron kinetic       :      2171.79843221    
 Coulomb                     :     -5606.29335308    
 Coulomb potential           :     -4063.52336836    
 nuclear-nuclear             :      2008.30440029    
 electron-nuclear            :     -11165.6721384    
 Hartree                     :      3551.07438502    
 Madelung                    :     -3574.53166890    
 xc potential                :     -288.702198862    
 exchange                    :     -217.670957775    
 correlation                 :     -6.10772390816    
 electron entropic           :    -0.630059952179E-03
 total energy                :     -3054.77561905    
 
Density of states at Fermi energy :    195.2863256    
 (states/Hartree/unit cell)
 
Estimated indirect band gap :   0.1235208252E-02
 from k-point     37 to k-point     13
Estimated direct band gap   :   0.4088081849E-02
 at k-point     47
 
Charges :
 core                        :    48.00000000    
 valence                     :    108.0000000    
 interstitial                :    25.70534849    
 muffin-tins (core leakage)
  species :    1 (Al)
   atom    1                 :    10.73443631     (  0.1356737141E-02)
   atom    2                 :    10.82284387     (  0.1374416569E-02)
   atom    3                 :    10.80065490     (  0.1374458918E-02)
   atom    4                 :    10.87509858     (  0.1373438477E-02)
   atom    5                 :    10.97848146     (  0.1373128984E-02)
   atom    6                 :    10.93524244     (  0.1373427341E-02)
   atom    7                 :    10.97850857     (  0.1373128422E-02)
   atom    8                 :    10.87532465     (  0.1373437177E-02)
   atom    9                 :    10.93545564     (  0.1373427837E-02)
   atom   10                 :    10.82307669     (  0.1374416105E-02)
   atom   11                 :    10.73463537     (  0.1356735980E-02)
   atom   12                 :    10.80089303     (  0.1374459492E-02)
 total in muffin-tins        :    130.2946515    
 total calculated charge     :    155.9563318    
 total charge                :    156.0000000    
 error                       :   0.4366823561E-01
 
RMS change in Kohn-Sham potential (target) :    2.209299889     (  0.1000000000E-06)
Absolute change in total energy (target)   :    87.95533912     (  0.1000000000E-04)
 
Time (CPU seconds) :      2753.54
 
+--------------------+
| Loop number :    4 |
+--------------------+
 
Energies :
 Fermi                       :     0.105048345370    
 sum of eigenvalues          :     -1578.43987124    
 electron kinetic            :      2874.04874652    
 core electron kinetic       :      2170.46356030    
 Coulomb                     :     -5605.87586201    
 Coulomb potential           :     -4163.69823369    
 nuclear-nuclear             :      2008.30440029    
 electron-nuclear            :     -11064.6622909    
 Hartree                     :      3450.48202861    
 Madelung                    :     -3524.02674517    
 xc potential                :     -288.790384067    
 exchange                    :     -217.730672864    
 correlation                 :     -6.11376386383    
 electron entropic           :    -0.459262708000E-03
 total energy                :     -2955.67201149    
 
Density of states at Fermi energy :    136.6397825    
 (states/Hartree/unit cell)
 
Estimated indirect band gap :   0.2079176861E-02
 from k-point     34 to k-point     25
Estimated direct band gap   :   0.3805520303E-02
 at k-point     55
 
Charges :
 core                        :    48.00000000    
 valence                     :    108.0000000    
 interstitial                :    25.67256008    
 muffin-tins (core leakage)
  species :    1 (Al)
   atom    1                 :    10.67171284     (  0.1358949596E-02)
   atom    2                 :    11.08346327     (  0.1369011777E-02)
   atom    3                 :    10.94393757     (  0.1370210002E-02)
   atom    4                 :    11.00784980     (  0.1369211984E-02)
   atom    5                 :    10.66087629     (  0.1374376636E-02)
   atom    6                 :    10.81063196     (  0.1372486669E-02)
   atom    7                 :    10.65954821     (  0.1374379741E-02)
   atom    8                 :    11.00276170     (  0.1369224333E-02)
   atom    9                 :    10.80705580     (  0.1372499044E-02)
   atom   10                 :    11.07516545     (  0.1369024314E-02)
   atom   11                 :    10.66725179     (  0.1358954585E-02)
   atom   12                 :    10.93718525     (  0.1370220536E-02)
 total in muffin-tins        :    130.3274399    
 total calculated charge     :    155.9563466    
 total charge                :    156.0000000    
 error                       :   0.4365344590E-01
 
RMS change in Kohn-Sham potential (target) :    1.238787108     (  0.1000000000E-06)
Absolute change in total energy (target)   :    77.11477279     (  0.1000000000E-04)
 
Time (CPU seconds) :      3437.95
 
+--------------------+
| Loop number :    5 |
+--------------------+
 
Energies :
 Fermi                       :     0.122150526756    
 sum of eigenvalues          :     -1575.54047973    
 electron kinetic            :      2848.09873280    
 core electron kinetic       :      2171.34895441    
 Coulomb                     :     -5603.61208819    
 Coulomb potential           :     -4134.91124858    
 nuclear-nuclear             :      2008.30440029    
 electron-nuclear            :     -11088.9217284    
 Hartree                     :      3477.00523990    
 Madelung                    :     -3536.15646390    
 xc potential                :     -288.727963961    
 exchange                    :     -217.692147415    
 correlation                 :     -6.10557572692    
 electron entropic           :    -0.883825698677E-03
 total energy                :     -2979.31196235    
 
Density of states at Fermi energy :    292.7598876    
 (states/Hartree/unit cell)
 
Estimated indirect band gap :   0.1887965075E-03
 from k-point      7 to k-point     41
Estimated direct band gap   :   0.4398344287E-02
 at k-point     28
 
Charges :
 core                        :    48.00000000    
 valence                     :    108.0000000    
 interstitial                :    25.69468960    
 muffin-tins (core leakage)
  species :    1 (Al)
   atom    1                 :    10.81631466     (  0.1354555067E-02)
   atom    2                 :    10.63270963     (  0.1376335838E-02)
   atom    3                 :    10.81077872     (  0.1369652132E-02)
   atom    4                 :    10.64997047     (  0.1375250996E-02)
   atom    5                 :    11.10034308     (  0.1368647539E-02)
   atom    6                 :    10.86471459     (  0.1372180455E-02)
   atom    7                 :    11.13428742     (  0.1368584075E-02)
   atom    8                 :    10.75248565     (  0.1375016723E-02)
   atom    9                 :    10.94485956     (  0.1372012224E-02)
   atom   10                 :    10.74667598     (  0.1375938085E-02)
   atom   11                 :    10.92097650     (  0.1354336365E-02)
   atom   12                 :    10.93119416     (  0.1369318513E-02)
 total in muffin-tins        :    130.3053104    
 total calculated charge     :    155.9563346    
 total charge                :    156.0000000    
 error                       :   0.4366535766E-01
 
RMS change in Kohn-Sham potential (target) :    2.475726659     (  0.1000000000E-06)
Absolute change in total energy (target)   :    4.361257665     (  0.1000000000E-04)
 
Time (CPU seconds) :      3945.34
 
+--------------------+
| Loop number :    6 |
+--------------------+
 
Energies :
 Fermi                       :     0.117246288341    
 sum of eigenvalues          :     -1575.98382945    
 electron kinetic            :      2714.16721842    
 core electron kinetic       :      2170.96041818    
 Coulomb                     :     -5534.97136405    
 Coulomb potential           :     -4001.20867065    
 nuclear-nuclear             :      2008.30440029    
 electron-nuclear            :     -11085.3428580    
 Hartree                     :      3542.06709370    
 Madelung                    :     -3534.36702873    
 xc potential                :     -288.942377218    
 exchange                    :     -217.836529161    
 correlation                 :     -6.11919402439    
 electron entropic           :    -0.386601297172E-03
 total energy                :     -3044.76025542    
 
Density of states at Fermi energy :    118.8802134    
 (states/Hartree/unit cell)
 
Estimated indirect band gap :   0.1261269192E-02
 from k-point     37 to k-point     38
Estimated direct band gap   :   0.7393876854E-02
 at k-point     41
 
Charges :
 core                        :    48.00000000    
 valence                     :    108.0000000    
 interstitial                :    25.64696984    
 muffin-tins (core leakage)
  species :    1 (Al)
   atom    1                 :    11.17823324     (  0.1352965261E-02)
   atom    2                 :    11.05244117     (  0.1374281184E-02)
   atom    3                 :    11.22106543     (  0.1369098029E-02)
   atom    4                 :    11.05443132     (  0.1372366340E-02)
   atom    5                 :    11.13397646     (  0.1368749082E-02)
   atom    6                 :    11.13757407     (  0.1370334253E-02)
   atom    7                 :    10.97024196     (  0.1369252451E-02)
   atom    8                 :    10.46457792     (  0.1373957507E-02)
   atom    9                 :    10.69196827     (  0.1371559368E-02)
   atom   10                 :    10.39474792     (  0.1375877965E-02)
   atom   11                 :    10.54942812     (  0.1354512318E-02)
   atom   12                 :    10.50434429     (  0.1370851955E-02)
 total in muffin-tins        :    130.3530302    
 total calculated charge     :    155.9563307    
 total charge                :    156.0000000    
 error                       :   0.4366934019E-01
 
RMS change in Kohn-Sham potential (target) :    10.97825698     (  0.1000000000E-06)
Absolute change in total energy (target)   :    66.53860749     (  0.1000000000E-04)
 
Time (CPU seconds) :      4330.88
 
+--------------------+
| Loop number :    7 |
+--------------------+
 
Energies :
 Fermi                       :     0.122824782448    
 sum of eigenvalues          :     -1575.91570787    
 electron kinetic            :      2493.82169561    
 core electron kinetic       :      2169.64180433    
 Coulomb                     :     -5471.30180679    
 Coulomb potential           :     -3780.09870402    
 nuclear-nuclear             :      2008.30440029    
 electron-nuclear            :     -11179.1137101    
 Hartree                     :      3699.50750307    
 Madelung                    :     -3581.25245478    
 xc potential                :     -289.638699462    
 exchange                    :     -218.319680438    
 correlation                 :     -6.15183623201    
 electron entropic           :    -0.345986393914E-03
 total energy                :     -3201.95197384    
 
Density of states at Fermi energy :    106.7115418    
 (states/Hartree/unit cell)
 
Estimated indirect band gap :   0.1111677210E-02
 from k-point     16 to k-point     47
Estimated direct band gap   :   0.6882628341E-02
 at k-point     47
 
Charges :
 core                        :    48.00000000    
 valence                     :    108.0000000    
 interstitial                :    25.36972362    
 muffin-tins (core leakage)
  species :    1 (Al)
   atom    1                 :    10.25423157     (  0.1344429227E-02)
   atom    2                 :    10.65529429     (  0.1349401719E-02)
   atom    3                 :    10.22083347     (  0.1368002059E-02)
   atom    4                 :    11.06294241     (  0.1339609249E-02)
   atom    5                 :    10.29578503     (  0.1365851794E-02)
   atom    6                 :    10.73378525     (  0.1349771565E-02)
   atom    7                 :    10.39573304     (  0.1366255996E-02)
   atom    8                 :    12.12079531     (  0.1338468533E-02)
   atom    9                 :    11.25122175     (  0.1349191700E-02)
   atom   10                 :    11.72007543     (  0.1347815735E-02)
   atom   11                 :    10.93565646     (  0.1342090797E-02)
   atom   12                 :    10.98392237     (  0.1365551761E-02)
 total in muffin-tins        :    130.6302764    
 total calculated charge     :    155.9563446    
 total charge                :    156.0000000    
 error                       :   0.4365539473E-01
 
RMS change in Kohn-Sham potential (target) :    14.17576041     (  0.1000000000E-06)
Absolute change in total energy (target)   :    173.8263703     (  0.1000000000E-04)
 
Time (CPU seconds) :      4714.17
 
+--------------------+
| Loop number :    8 |
+--------------------+
 
Energies :
 Fermi                       :     0.122738279797    
 sum of eigenvalues          :     -1572.07446305    
 electron kinetic            :      3026.69291461    
 core electron kinetic       :      2173.12234373    
 Coulomb                     :     -5559.72667260    
 Coulomb potential           :     -4309.05936156    
 nuclear-nuclear             :      2008.30440029    
 electron-nuclear            :     -10827.0027842    
 Hartree                     :      3258.97171133    
 Madelung                    :     -3405.19699182    
 xc potential                :     -289.708016106    
 exchange                    :     -218.376641230    
 correlation                 :     -6.15242564733    
 electron entropic           :    -0.400018828999E-03
 total energy                :     -2757.56322489    
 
Density of states at Fermi energy :    125.0061997    
 (states/Hartree/unit cell)
 
Estimated indirect band gap :   0.1218785536E-02
 from k-point     54 to k-point     47
Estimated direct band gap   :   0.9155196603E-02
 at k-point     31
 
Charges :
 core                        :    48.00000000    
 valence                     :    108.0000000    
 interstitial                :    25.39797998    
 muffin-tins (core leakage)
  species :    1 (Al)
   atom    1                 :    10.89798304     (  0.1354906072E-02)
   atom    2                 :    11.07504581     (  0.1337800220E-02)
   atom    3                 :    11.33177950     (  0.1347785593E-02)
   atom    4                 :    10.39398283     (  0.1370834888E-02)
   atom    5                 :    11.70361622     (  0.1337645382E-02)
   atom    6                 :    10.61891465     (  0.1362505941E-02)
   atom    7                 :    11.64958914     (  0.1327183596E-02)
   atom    8                 :    9.986493597     (  0.1394530795E-02)
   atom    9                 :    10.23686914     (  0.1358254604E-02)
   atom   10                 :    10.18749190     (  0.1357425004E-02)
   atom   11                 :    11.33593625     (  0.1341835018E-02)
   atom   12                 :    11.18431796     (  0.1329539303E-02)
 total in muffin-tins        :    130.6020200    
 total calculated charge     :    155.9559533    
 total charge                :    156.0000000    
 error                       :   0.4404667252E-01
 
RMS change in Kohn-Sham potential (target) :    6.130024498     (  0.1000000000E-06)
Absolute change in total energy (target)   :    400.9321564     (  0.1000000000E-04)
 
Time (CPU seconds) :      5097.89
 
+--------------------+
| Loop number :    9 |
+--------------------+
 
Energies :
 Fermi                       :     0.353639960442E-01
 sum of eigenvalues          :     -1582.45129031    
 electron kinetic            :      2723.79230017    
 core electron kinetic       :      2178.44774371    
 Coulomb                     :     -5442.17872968    
 Coulomb potential           :     -4014.99742637    
 nuclear-nuclear             :      2008.30440029    
 electron-nuclear            :     -10885.9688336    
 Hartree                     :      3435.48570360    
 Madelung                    :     -3434.68001650    
 xc potential                :     -291.246164104    
 exchange                    :     -219.447825590    
 correlation                 :     -6.22932961168    
 electron entropic           :    -0.518558016546E-03
 total energy                :     -2944.06410327    
 
Density of states at Fermi energy :    161.4917696    
 (states/Hartree/unit cell)
 
Estimated indirect band gap :   0.1125517696E-02
 from k-point     57 to k-point     49
Estimated direct band gap   :   0.1404227863E-02
 at k-point     57
 
Charges :
 core                        :    48.00000000    
 valence                     :    108.0000000    
 interstitial                :    24.92193543    
 muffin-tins (core leakage)
  species :    1 (Al)
   atom    1                 :    12.52664367     (  0.1311576630E-02)
   atom    2                 :    10.12808592     (  0.1368842472E-02)
   atom    3                 :    10.83894380     (  0.1357832083E-02)
   atom    4                 :    10.22306070     (  0.1341157635E-02)
   atom    5                 :    10.02927297     (  0.1379272808E-02)
   atom    6                 :    10.26007133     (  0.1327684733E-02)
   atom    7                 :    10.53319281     (  0.1370758319E-02)
   atom    8                 :    12.47218351     (  0.1337116806E-02)
   atom    9                 :    12.74258077     (  0.1302706626E-02)
   atom   10                 :    11.26283051     (  0.1325497536E-02)
   atom   11                 :    9.985114420     (  0.1365303973E-02)
   atom   12                 :    10.07608416     (  0.1356860831E-02)
 total in muffin-tins        :    131.0780646    
 total calculated charge     :    155.9557688    
 total charge                :    156.0000000    
 error                       :   0.4423118333E-01
 
RMS change in Kohn-Sham potential (target) :    9.187834092     (  0.1000000000E-06)
Absolute change in total energy (target)   :    86.26783929     (  0.1000000000E-04)
 
Time (CPU seconds) :      5483.96
 
+--------------------+
| Loop number :   10 |
+--------------------+
 
Energies :
 Fermi                       :    -0.150301095182    
 sum of eigenvalues          :     -1609.62362523    
 electron kinetic            :      1091.91301557    
 core electron kinetic       :      2157.93327034    
 Coulomb                     :     -5117.39109554    
 Coulomb potential           :     -2408.93018374    
 nuclear-nuclear             :      2008.30440029    
 electron-nuclear            :     -11842.4608079    
 Hartree                     :      4716.76531209    
 Madelung                    :     -3912.92600367    
 xc potential                :     -292.606457053    
 exchange                    :     -220.386579382    
 correlation                 :     -6.31654667879    
 electron entropic           :    -0.473000215206E-03
 total energy                :     -4252.18167903    
 
Density of states at Fermi energy :    151.2915571    
 (states/Hartree/unit cell)
 
Estimated indirect band gap :   0.1112572810E-02
 from k-point     20 to k-point     46
Estimated direct band gap   :   0.3225628596E-02
 at k-point     29
 
Charges :
 core                        :    48.00000000    
 valence                     :    108.0000000    
 interstitial                :    24.32391685    
 muffin-tins (core leakage)
  species :    1 (Al)
   atom    1                 :    9.985057087     (  0.1365415627E-02)
   atom    2                 :    11.36311672     (  0.1338232452E-02)
   atom    3                 :    10.02776640     (  0.1361557953E-02)
   atom    4                 :    14.03847311     (  0.1318580552E-02)
   atom    5                 :    10.99757719     (  0.1362006326E-02)
   atom    6                 :    13.65255896     (  0.1318576910E-02)
   atom    7                 :    10.16314321     (  0.1365999103E-02)
   atom    8                 :    10.19330341     (  0.1357877732E-02)
   atom    9                 :    10.11262298     (  0.1343942462E-02)
   atom   10                 :    10.73900960     (  0.1323171733E-02)
   atom   11                 :    9.996479860     (  0.1345363600E-02)
   atom   12                 :    10.40697462     (  0.1333747489E-02)
 total in muffin-tins        :    131.6760832    
 total calculated charge     :    155.9559475    
 total charge                :    156.0000000    
 error                       :   0.4405248652E-01
 
RMS change in Kohn-Sham potential (target) :    24.27200507     (  0.1000000000E-06)
Absolute change in total energy (target)   :    1329.684536     (  0.1000000000E-04)
 
Time (CPU seconds) :      5869.50
 
+--------------------+
| Loop number :   11 |
+--------------------+
 
Energies :
 Fermi                       :    -0.691518215494E-01
 sum of eigenvalues          :     -1573.12857501    
 electron kinetic            :      3338.30124555    
 core electron kinetic       :      2178.65190992    
 Coulomb                     :     -5189.98259158    
 Coulomb potential           :     -4619.57073118    
 nuclear-nuclear             :      2008.30440029    
 electron-nuclear            :     -9777.00325257    
 Hartree                     :      2578.71626069    
 Madelung                    :     -2880.19722599    
 xc potential                :     -291.859089387    
 exchange                    :     -219.859001696    
 correlation                 :     -6.28432958273    
 electron entropic           :    -0.251502181118E-03
 total energy                :     -2077.82492881    
 
Density of states at Fermi energy :    61.68846741    
 (states/Hartree/unit cell)
 
Estimated indirect band gap :   0.4380461135E-02
 from k-point     34 to k-point     46
Estimated direct band gap   :   0.4653650387E-02
 at k-point     49
 
Charges :
 core                        :    48.00000000    
 valence                     :    108.0000000    
 interstitial                :    24.74202396    
 muffin-tins (core leakage)
  species :    1 (Al)
   atom    1                 :    10.58365573     (  0.1359920254E-02)
   atom    2                 :    11.86229274     (  0.1314253517E-02)
   atom    3                 :    12.40738189     (  0.1314267162E-02)
   atom    4                 :    10.08732719     (  0.1359685213E-02)
   atom    5                 :    9.985197600     (  0.1351926290E-02)
   atom    6                 :    9.985031323     (  0.1363122755E-02)
   atom    7                 :    9.985152837     (  0.1357502035E-02)
   atom    8                 :    10.00373085     (  0.1353089911E-02)
   atom    9                 :    9.985091870     (  0.1358767256E-02)
   atom   10                 :    11.06318400     (  0.1323496957E-02)
   atom   11                 :    12.63394992     (  0.1312640977E-02)
   atom   12                 :    12.67598009     (  0.1323989166E-02)
 total in muffin-tins        :    131.2579760    
 total calculated charge     :    155.9558052    
 total charge                :    156.0000000    
 error                       :   0.4419484984E-01
 
RMS change in Kohn-Sham potential (target) :    22.93072342     (  0.1000000000E-06)
Absolute change in total energy (target)   :    1841.935616     (  0.1000000000E-04)
 
Time (CPU seconds) :      6253.09
 
+--------------------+
| Loop number :   12 |
+--------------------+
 
Energies :
 Fermi                       :     -1.10988782350    
 sum of eigenvalues          :     -1615.68932968    
 electron kinetic            :     -1902.42989950    
 core electron kinetic       :      2178.54056868    
 Coulomb                     :     -3903.00199582    
 Coulomb potential           :      567.303323202    
 nuclear-nuclear             :      2008.30440029    
 electron-nuclear            :     -12389.9161154    
 Hartree                     :      6478.60971931    
 Madelung                    :     -4186.65365742    
 xc potential                :     -280.562753389    
 exchange                    :     -210.553790466    
 correlation                 :     -6.77348223892    
 electron entropic           :    -0.108908107741E-03
 total energy                :     -6022.75927693    
 
Density of states at Fermi energy :    28.27732659    
 (states/Hartree/unit cell)
 
Estimated indirect band gap :   0.4925404072E-02
 from k-point     27 to k-point     22
Estimated direct band gap   :   0.2353541994E-01
 at k-point     51
 
Charges :
 core                        :    48.00000000    
 valence                     :    108.0000000    
 interstitial                :    33.03540049    
 muffin-tins (core leakage)
  species :    1 (Al)
   atom    1                 :    9.985446406     (  0.1323801961E-02)
   atom    2                 :    9.984371735     (  0.1353968380E-02)
   atom    3                 :    9.985595253     (  0.1305300241E-02)
   atom    4                 :    3.999085315     (  0.1464048255E-02)
   atom    5                 :    11.69132427     (  0.1225936236E-02)
   atom    6                 :    9.996194957     (  0.1416943249E-02)
   atom    7                 :    16.38347776     (  0.1217814792E-02)
   atom    8                 :    9.983373176     (  0.1403780814E-02)
   atom    9                 :    11.00074504     (  0.1368636275E-02)
   atom   10                 :    9.984153058     (  0.1401009100E-02)
   atom   11                 :    9.985906628     (  0.1287728429E-02)
   atom   12                 :    9.984925922     (  0.1335115531E-02)
 total in muffin-tins        :    122.9645995    
 total calculated charge     :    155.9703454    
 total charge                :    156.0000000    
 error                       :   0.2965463135E-01
 
RMS change in Kohn-Sham potential (target) :    37.30253880     (  0.1000000000E-06)
Absolute change in total energy (target)   :    3484.450444     (  0.1000000000E-04)
 
Time (CPU seconds) :      6638.94
 
+--------------------+
| Loop number :   13 |
+--------------------+
 
Energies :
 Fermi                       :    -0.297884184456    
 sum of eigenvalues          :     -1618.69266416    
 electron kinetic            :      2371.50999051    
 core electron kinetic       :      2152.17308313    
 Coulomb                     :     -5543.57865518    
 Coulomb potential           :     -3692.22962681    
 nuclear-nuclear             :      2008.30440029    
 electron-nuclear            :     -11411.5364841    
 Hartree                     :      3859.65342867    
 Madelung                    :     -3697.46384178    
 xc potential                :     -297.973027863    
 exchange                    :     -224.514319476    
 correlation                 :     -6.29411830860    
 electron entropic           :    -0.289544864148E-03
 total energy                :     -3402.87739200    
 
Density of states at Fermi energy :    86.96183316    
 (states/Hartree/unit cell)
 
Estimated indirect band gap :   0.2281630082E-02
 from k-point     30 to k-point     36
Estimated direct band gap   :   0.1481307268E-01
 at k-point     21
 
Charges :
 core                        :    48.00000000    
 valence                     :    108.0000000    
 interstitial                :    21.79083055    
 muffin-tins (core leakage)
  species :    1 (Al)
   atom    1                 :    10.89373472     (  0.1287227322E-02)
   atom    2                 :    10.92399416     (  0.1368673827E-02)
   atom    3                 :    10.43415324     (  0.1366333089E-02)
   atom    4                 :    13.53692735     (  0.6566377775E-03)
   atom    5                 :    9.991907234     (  0.7011033896E-03)
   atom    6                 :    10.10812632     (  0.1308436171E-02)
   atom    7                 :    11.99459091     (  0.7798046650E-03)
   atom    8                 :    14.16686633     (  0.1242824603E-02)
   atom    9                 :    10.08997721     (  0.1290943352E-02)
   atom   10                 :    12.06965687     (  0.1321174698E-02)
   atom   11                 :    9.985528849     (  0.1327977155E-02)
   atom   12                 :    10.01370626     (  0.1372478988E-02)
 total in muffin-tins        :    134.2091695    
 total calculated charge     :    155.9591633    
 total charge                :    156.0000000    
 error                       :   0.4083667295E-01
 
RMS change in Kohn-Sham potential (target) :    6.625790725     (  0.1000000000E-06)
Absolute change in total energy (target)   :    1748.769274     (  0.1000000000E-04)
 
Time (CPU seconds) :      7023.06
 
+--------------------+
| Loop number :   14 |
+--------------------+
 
Energies :
 Fermi                       :    -0.665366995566    
 sum of eigenvalues          :     -1580.45394529    
 electron kinetic            :      1864.25531029    
 core electron kinetic       :      2198.35705972    
 Coulomb                     :     -3588.44893037    
 Coulomb potential           :     -3148.85483824    
 nuclear-nuclear             :      2008.30440029    
 electron-nuclear            :     -8044.65182309    
 Hartree                     :      2447.89849243    
 Madelung                    :     -2014.02151126    
 xc potential                :     -295.854417346    
 exchange                    :     -222.655375971    
 correlation                 :     -6.50433810515    
 electron entropic           :    -0.471286400900E-03
 total energy                :     -1953.35380545    
 
Density of states at Fermi energy :    150.6045397    
 (states/Hartree/unit cell)
 
Estimated indirect band gap :   0.7663655161E-03
 from k-point      2 to k-point      3
Estimated direct band gap   :   0.2104075791E-02
 at k-point     10
 
Charges :
 core                        :    48.00000000    
 valence                     :    108.0000000    
 interstitial                :    27.21104024    
 muffin-tins (core leakage)
  species :    1 (Al)
   atom    1                 :    18.30456977     (  0.1246396849E-02)
   atom    2                 :    9.983810278     (  0.1398913804E-02)
   atom    3                 :    10.63750214     (  0.1351014458E-02)
   atom    4                 :    9.988357495     (  0.1050940634E-02)
   atom    5                 :    9.989349716     (  0.9242489917E-03)
   atom    6                 :    9.987375193     (  0.1193948817E-02)
   atom    7                 :    9.974468056     (  0.1774180272E-02)
   atom    8                 :    9.979051919     (  0.1498193367E-02)
   atom    9                 :    9.988872455     (  0.1093262990E-02)
   atom   10                 :    9.984487590     (  0.1383888589E-02)
   atom   11                 :    9.985544571     (  0.1327132863E-02)
   atom   12                 :    9.985570578     (  0.1323255058E-02)
 total in muffin-tins        :    128.7889598    
 total calculated charge     :    155.9573066    
 total charge                :    156.0000000    
 error                       :   0.4269336759E-01
 
RMS change in Kohn-Sham potential (target) :    52.35846160     (  0.1000000000E-06)
Absolute change in total energy (target)   :    1886.715905     (  0.1000000000E-04)
 
Time (CPU seconds) :      7407.98
 
+--------------------+
| Loop number :   15 |
+--------------------+
 
Energies :
 Fermi                       :    -0.561930661359    
 sum of eigenvalues          :     -1637.91029793    
 electron kinetic            :      2117.42304870    
 core electron kinetic       :      2200.66671842    
 Coulomb                     :     -4474.16027309    
 Coulomb potential           :     -3461.26643956    
 nuclear-nuclear             :      2008.30440029    
 electron-nuclear            :     -9503.66290721    
 Hartree                     :      3021.19823383    
 Madelung                    :     -2743.52705331    
 xc potential                :     -294.066907070    
 exchange                    :     -221.385178341    
 correlation                 :     -6.41905529381    
 electron entropic           :    -0.295661725583E-02
 total energy                :     -2584.54441465    
 
Density of states at Fermi energy :    1046.541277    
 (states/Hartree/unit cell)
 
Estimated indirect band gap :   0.1558797997E-04
 from k-point     29 to k-point     43
Estimated direct band gap   :   0.9016024387E-04
 at k-point     43
 
Charges :
 core                        :    48.00000000    
 valence                     :    108.0000000    
 interstitial                :    23.96481031    
 muffin-tins (core leakage)
  species :    1 (Al)
   atom    1                 :    9.984705372     (  0.1351285664E-02)
   atom    2                 :    9.985510045     (  0.1344194524E-02)
   atom    3                 :    9.985831133     (  0.1298635190E-02)
   atom    4                 :    10.42315272     (  0.7436629135E-03)
   atom    5                 :    10.01794130     (  0.6881393546E-03)
   atom    6                 :    12.09102012     (  0.1198660141E-02)
   atom    7                 :    7.926044141     (  0.1218894449E-02)
   atom    8                 :    9.983257864     (  0.1460309560E-02)
   atom    9                 :    9.987587049     (  0.1140781073E-02)
   atom   10                 :    10.12953378     (  0.1376486398E-02)
   atom   11                 :    16.82400556     (  0.1256752207E-02)
   atom   12                 :    14.69660059     (  0.1277984109E-02)
 total in muffin-tins        :    132.0351897    
 total calculated charge     :    155.9582859    
 total charge                :    156.0000000    
 error                       :   0.4171411926E-01
 
RMS change in Kohn-Sham potential (target) :    38.10178897     (  0.1000000000E-06)
Absolute change in total energy (target)   :    159.5116329     (  0.1000000000E-04)
 
Time (CPU seconds) :      7792.18
 
+--------------------+
| Loop number :   16 |
+--------------------+
 
Energies :
 Fermi                       :     -1.75901329243    
 sum of eigenvalues          :     -1741.77843526    
 electron kinetic            :     -2031.59059155    
 core electron kinetic       :      2172.00522174    
 Coulomb                     :     -2637.35119127    
 Coulomb potential           :      568.507845438    
 nuclear-nuclear             :      2008.30440029    
 electron-nuclear            :     -9859.81902856    
 Hartree                     :      5214.16343700    
 Madelung                    :     -2921.60511399    
 xc potential                :     -278.695689148    
 exchange                    :     -208.911508103    
 correlation                 :     -6.87565938153    
 electron entropic           :    -0.199671231203E-03
 total energy                :     -4884.72914998    
 
Density of states at Fermi energy :    56.29672578    
 (states/Hartree/unit cell)
 
Estimated indirect band gap :   0.4826790229E-02
 from k-point     26 to k-point      1
Estimated direct band gap   :   0.2017002494E-01
 at k-point      1
 
Charges :
 core                        :    48.00000000    
 valence                     :    108.0000000    
 interstitial                :    36.13662286    
 muffin-tins (core leakage)
  species :    1 (Al)
   atom    1                 :    10.07675769     (  0.1405094026E-02)
   atom    2                 :    10.93062597     (  0.1193307842E-02)
   atom    3                 :    19.79041469     (  0.1093236668E-02)
   atom    4                 :    9.986674538     (  0.9502863098E-03)
   atom    5                 :    9.991326297     (  0.7871941714E-03)
   atom    6                 :    3.998824536     (  0.1462066641E-02)
   atom    7                 :    9.989724380     (  0.8454062795E-03)
   atom    8                 :    10.03915352     (  0.1439694738E-02)
   atom    9                 :    11.09183377     (  0.1145177336E-02)
   atom   10                 :    9.985794762     (  0.1277866470E-02)
   atom   11                 :    3.998879329     (  0.1406876474E-02)
   atom   12                 :    9.983367651     (  0.1323517594E-02)
 total in muffin-tins        :    119.8633771    
 total calculated charge     :    155.9845406    
 total charge                :    156.0000000    
 error                       :   0.1545937393E-01
 
RMS change in Kohn-Sham potential (target) :    57.93845781     (  0.1000000000E-06)
Absolute change in total energy (target)   :    2340.062644     (  0.1000000000E-04)
 
Time (CPU seconds) :      8176.82
 
+--------------------+
| Loop number :   17 |
+--------------------+
 
Energies :
 Fermi                       :     -1.21706868510    
 sum of eigenvalues          :     -1705.62501525    
 electron kinetic            :     -2977.16606734    
 core electron kinetic       :      2209.28888640    
 Coulomb                     :     -3007.96093236    
 Coulomb potential           :      1560.15675615    
 nuclear-nuclear             :      2008.30440029    
 electron-nuclear            :     -11592.6874215    
 Hartree                     :      6576.42208880    
 Madelung                    :     -3788.03931044    
 xc potential                :     -288.615704059    
 exchange                    :     -216.783771088    
 correlation                 :     -6.72502300647    
 electron entropic           :    -0.281855072639E-03
 total energy                :     -6208.63607565    
 
Density of states at Fermi energy :    93.38706318    
 (states/Hartree/unit cell)
 
Estimated indirect band gap :   0.1516625918E-02
 from k-point     62 to k-point     12
Estimated direct band gap   :   0.2246775370E-01
 at k-point     37
 
Charges :
 core                        :    48.00000000    
 valence                     :    108.0000000    
 interstitial                :    30.17265080    
 muffin-tins (core leakage)
  species :    1 (Al)
   atom    1                 :    9.985751561     (  0.1060485696E-02)
   atom    2                 :    5.997526040     (  0.5297149750E-03)
   atom    3                 :    3.998748317     (  0.7037660164E-03)
   atom    4                 :    10.00367931     (  0.5403406035E-03)
   atom    5                 :    9.993949665     (  0.5811248900E-03)
   atom    6                 :    10.40708874     (  0.5049654049E-03)
   atom    7                 :    9.992962427     (  0.4789286194E-03)
   atom    8                 :    14.05510066     (  0.1270515361E-02)
   atom    9                 :    12.23878007     (  0.1231457755E-02)
   atom   10                 :    17.16171741     (  0.1189414647E-02)
   atom   11                 :    11.99688558     (  0.5767199782E-03)
   atom   12                 :    9.995159419     (  0.1443258463E-02)
 total in muffin-tins        :    125.8273492    
 total calculated charge     :    156.0296451    
 total charge                :    156.0000000    
 error                       :   0.2964511665E-01
 
RMS change in Kohn-Sham potential (target) :    60.66786344     (  0.1000000000E-06)
Absolute change in total energy (target)   :    1908.922587     (  0.1000000000E-04)
 
Time (CPU seconds) :      8561.58
 
+--------------------+
| Loop number :   18 |
+--------------------+
 
Energies :
 Fermi                       :     -2.97654639455    
 sum of eigenvalues          :     -1872.00640279    
 electron kinetic            :     -15090.3117052    
 core electron kinetic       :      2223.83510527    
 Coulomb                     :      2516.44722501    
 Coulomb potential           :      13468.2975774    
 nuclear-nuclear             :      2008.30440029    
 electron-nuclear            :     -12452.0119279    
 Hartree                     :      12960.1547527    
 Madelung                    :     -4217.70156368    
 xc potential                :     -249.992274994    
 exchange                    :     -185.822402037    
 correlation                 :     -7.52666955214    
 electron entropic           :    -0.255124373451E-03
 total energy                :     -12767.2138069    
 
Density of states at Fermi energy :    74.45990373    
 (states/Hartree/unit cell)
 
Estimated indirect band gap :   0.2350620022E-02
 from k-point      6 to k-point     66
Estimated direct band gap   :   0.1157285311E-01
 at k-point     36
 
Charges :
 core                        :    48.00000000    
 valence                     :    108.0000000    
 interstitial                :    60.53336398    
 muffin-tins (core leakage)
  species :    1 (Al)
   atom    1                 :    3.996723292     (  0.1115536602E-02)
   atom    2                 :    10.04748764     (  0.2109966138E-03)
   atom    3                 :    3.997601627     (  0.2391506732E-03)
   atom    4                 :    20.86105857     (  0.5662615738E-03)
   atom    5                 :    7.786053733     (  0.6805527249E-03)
   atom    6                 :    18.79386513     (  0.3506464211E-03)
   atom    7                 :    3.997311935     (  0.5432375164E-03)
   atom    8                 :    3.997233826     (  0.6040071741E-03)
   atom    9                 :    3.996479269     (  0.1361810757E-02)
   atom   10                 :    3.996404041     (  0.1433063124E-02)
   atom   11                 :    9.999825372     (  0.4802247463E-03)
   atom   12                 :    3.996591589     (  0.1245819181E-02)
 total in muffin-tins        :    95.46663602    
 total calculated charge     :    156.1171582    
 total charge                :    156.0000000    
 error                       :   0.1171581614    
 
RMS change in Kohn-Sham potential (target) :    92.95052603     (  0.1000000000E-06)
Absolute change in total energy (target)   :    7035.808378     (  0.1000000000E-04)
 
Time (CPU seconds) :      8944.85
 
+--------------------+
| Loop number :   19 |
+--------------------+
 
Energies :
 Fermi                       :    -0.966894830288    
 sum of eigenvalues          :     -1730.68589515    
 electron kinetic            :      1352.41493206    
 core electron kinetic       :      2226.41909590    
 Coulomb                     :     -4475.04554203    
 Coulomb potential           :     -2810.88303914    
 nuclear-nuclear             :      2008.30440029    
 electron-nuclear            :     -10155.8168455    
 Hartree                     :      3672.46690318    
 Madelung                    :     -3069.60402246    
 xc potential                :     -272.217788065    
 exchange                    :     -204.545988534    
 correlation                 :     -6.48098800351    
 electron entropic           :    -0.176212211451E-03
 total energy                :     -3333.65776272    
 
Density of states at Fermi energy :    42.86783687    
 (states/Hartree/unit cell)
 
Estimated indirect band gap :   0.4814204482E-02
 from k-point     42 to k-point     29
Estimated direct band gap   :   0.6729721925E-02
 at k-point     29
 
Charges :
 core                        :    48.00000000    
 valence                     :    108.0000000    
 interstitial                :    32.07683714    
 muffin-tins (core leakage)
  species :    1 (Al)
   atom    1                 :    10.49026926     (  0.6766786957E-03)
   atom    2                 :    6.670805485     (  0.2349797386E-03)
   atom    3                 :    11.71132867     (  0.1072692789E-03)
   atom    4                 :    5.995063733     (  0.6052003183E-03)
   atom    5                 :    11.99583543     (  0.5039040740E-03)
   atom    6                 :    3.999700563     (  0.4562969160E-03)
   atom    7                 :    14.02489935     (  0.3225150121E-03)
   atom    8                 :    9.996682208     (  0.2251227648E-03)
   atom    9                 :    9.054271456     (  0.6774424370E-03)
   atom   10                 :    12.02929379     (  0.8003755883E-03)
   atom   11                 :    11.92069486     (  0.1031693163E-02)
   atom   12                 :    16.03431804     (  0.6448796519E-03)
 total in muffin-tins        :    123.9231629    
 total calculated charge     :    155.9915352    
 total charge                :    156.0000000    
 error                       :   0.8464810535E-02
 
RMS change in Kohn-Sham potential (target) :    34.77293140     (  0.1000000000E-06)
Absolute change in total energy (target)   :    7674.603950     (  0.1000000000E-04)
 
Time (CPU seconds) :      9329.12
 
+--------------------+
| Loop number :   20 |
+--------------------+
 
Energies :
 Fermi                       :    -0.877895790942    
 sum of eigenvalues          :     -1765.04242988    
 electron kinetic            :      980.254350534    
 core electron kinetic       :      2200.15023069    
 Coulomb                     :     -4805.01456855    
 Coulomb potential           :     -2459.20693311    
 nuclear-nuclear             :      2008.30440029    
 electron-nuclear            :     -11167.4310046    
 Hartree                     :      4354.11203573    
 Madelung                    :     -3575.41110200    
 xc potential                :     -286.089847299    
 exchange                    :     -215.006151230    
 correlation                 :     -6.63957910838    
 electron entropic           :    -0.172867225224E-03
 total energy                :     -4046.40612122    
 
Density of states at Fermi energy :    56.25404245    
 (states/Hartree/unit cell)
 
Estimated indirect band gap :   0.3365817075E-02
 from k-point     28 to k-point     12
Estimated direct band gap   :   0.3074333788E-01
 at k-point     17
 
Charges :
 core                        :    48.00000000    
 valence                     :    108.0000000    
 interstitial                :    26.47130110    
 muffin-tins (core leakage)
  species :    1 (Al)
   atom    1                 :    9.992630372     (  0.6673792290E-03)
   atom    2                 :    17.80930318     (  0.1074534405E-03)
   atom    3                 :    4.005193264     (  0.7920194764E-04)
   atom    4                 :    11.01734647     (  0.2142425993E-03)
   atom    5                 :    6.002436359     (  0.1004927986E-02)
   atom    6                 :    9.996731626     (  0.8947368971E-04)
   atom    7                 :    9.996295832     (  0.1797301543E-03)
   atom    8                 :    14.58404234     (  0.4076132381E-03)
   atom    9                 :    10.06449380     (  0.1617843325E-03)
   atom   10                 :    15.94809447     (  0.1154977036E-02)
   atom   11                 :    9.990494710     (  0.8685306798E-03)
   atom   12                 :    10.12163647     (  0.9482941459E-03)
 total in muffin-tins        :    129.5286989    
 total calculated charge     :    155.9788285    
 total charge                :    156.0000000    
 error                       :   0.2117147238E-01
 
RMS change in Kohn-Sham potential (target) :    24.27484431     (  0.1000000000E-06)
Absolute change in total energy (target)   :    1205.902629     (  0.1000000000E-04)
 
Time (CPU seconds) :      9712.93
 
+--------------------+
| Loop number :   21 |
+--------------------+
 
Energies :
 Fermi                       :    -0.171089202850    
 sum of eigenvalues          :     -1741.45773538    
 electron kinetic            :      3650.92792669    
 core electron kinetic       :      2237.89904393    
 Coulomb                     :     -4798.40838167    
 Coulomb potential           :     -5091.60110795    
 nuclear-nuclear             :      2008.30440029    
 electron-nuclear            :     -8521.82445597    
 Hartree                     :      1715.11167401    
 Madelung                    :     -2252.60782769    
 xc potential                :     -300.784554117    
 exchange                    :     -226.594573849    
 correlation                 :     -6.32705021198    
 electron entropic           :    -0.704748154121E-03
 total energy                :     -1380.40278379    
 
Density of states at Fermi energy :    220.9278174    
 (states/Hartree/unit cell)
 
Estimated indirect band gap :   0.6954804419E-04
 from k-point      7 to k-point     46
Estimated direct band gap   :   0.2435037681E-02
 at k-point     19
 
Charges :
 core                        :    48.00000000    
 valence                     :    108.0000000    
 interstitial                :    27.31232005    
 muffin-tins (core leakage)
  species :    1 (Al)
   atom    1                 :    17.35923085     (  0.6817578459E-03)
   atom    2                 :    9.996913004     (  0.1195147142E-03)
   atom    3                 :    5.219813641     (  0.6249653251E-04)
   atom    4                 :    9.996078324     (  0.2667449853E-03)
   atom    5                 :    10.40469383     (  0.5927230088E-03)
   atom    6                 :    9.997162813     (  0.1188784532E-03)
   atom    7                 :    10.02353414     (  0.2274067892E-03)
   atom    8                 :    10.81034475     (  0.3311498708E-03)
   atom    9                 :    11.55815396     (  0.2068242463E-03)
   atom   10                 :    9.986487534     (  0.1258415915E-02)
   atom   11                 :    13.34043590     (  0.7998049405E-03)
   atom   12                 :    9.994831213     (  0.9486973113E-03)
 total in muffin-tins        :    128.6876800    
 total calculated charge     :    155.9624015    
 total charge                :    156.0000000    
 error                       :   0.3759854384E-01
 
RMS change in Kohn-Sham potential (target) :    33.67128822     (  0.1000000000E-06)
Absolute change in total energy (target)   :    2967.478995     (  0.1000000000E-04)
 
Time (CPU seconds) :     10098.59
 
+--------------------+
| Loop number :   22 |
+--------------------+
 
Energies :
 Fermi                       :     -1.01525735438    
 sum of eigenvalues          :     -1753.92824294    
 electron kinetic            :      1231.89735580    
 core electron kinetic       :      2203.14775031    
 Coulomb                     :     -5152.52297287    
 Coulomb potential           :     -2699.97685575    
 nuclear-nuclear             :      2008.30440029    
 electron-nuclear            :     -11621.6778906    
 Hartree                     :      4460.85051741    
 Madelung                    :     -3802.53454499    
 xc potential                :     -285.848742991    
 exchange                    :     -214.912553338    
 correlation                 :     -6.43815977155    
 electron entropic           :    -0.271730639089E-03
 total energy                :     -4141.97660191    
 
Density of states at Fermi energy :    78.11089149    
 (states/Hartree/unit cell)
 
Estimated indirect band gap :   0.3404291991E-02
 from k-point     52 to k-point     65
Estimated direct band gap   :   0.5791800868E-02
 at k-point     46
 
Charges :
 core                        :    48.00000000    
 valence                     :    108.0000000    
 interstitial                :    23.27846839    
 muffin-tins (core leakage)
  species :    1 (Al)
   atom    1                 :    11.71061363     (  0.7205557442E-03)
   atom    2                 :    9.996776052     (  0.1716146869E-03)
   atom    3                 :    10.62422422     (  0.5452849485E-04)
   atom    4                 :    9.994884742     (  0.3335982722E-03)
   atom    5                 :    12.83656021     (  0.4864780381E-03)
   atom    6                 :    9.995973989     (  0.1806098808E-03)
   atom    7                 :    10.61550923     (  0.2665077490E-03)
   atom    8                 :    11.65623973     (  0.3145057190E-03)
   atom    9                 :    15.32358268     (  0.2637906484E-03)
   atom   10                 :    9.987426823     (  0.1120849229E-02)
   atom   11                 :    9.989405147     (  0.9489240795E-03)
   atom   12                 :    9.990335164     (  0.8538837717E-03)
 total in muffin-tins        :    132.7215316    
 total calculated charge     :    155.9966439    
 total charge                :    156.0000000    
 error                       :   0.3356053977E-02
 
RMS change in Kohn-Sham potential (target) :    17.57403540     (  0.1000000000E-06)
Absolute change in total energy (target)   :    2019.704069     (  0.1000000000E-04)
 
Time (CPU seconds) :     10481.96
 
+--------------------+
| Loop number :   23 |
+--------------------+
 
Energies :
 Fermi                       :     -1.19302554145    
 sum of eigenvalues          :     -1781.25542807    
 electron kinetic            :      2856.40798232    
 core electron kinetic       :      2181.79855082    
 Coulomb                     :     -5091.87690042    
 Coulomb potential           :     -4341.23508289    
 nuclear-nuclear             :      2008.30440029    
 electron-nuclear            :     -9859.12751854    
 Hartree                     :      2758.94621782    
 Madelung                    :     -2921.25935898    
 xc potential                :     -296.428327496    
 exchange                    :     -223.001328221    
 correlation                 :     -6.53554671983    
 electron entropic           :    -0.311037427395E-03
 total energy                :     -2465.00610408    
 
Density of states at Fermi energy :    97.60310232    
 (states/Hartree/unit cell)
 
Estimated indirect band gap :   0.2385901466E-02
 from k-point     42 to k-point     23
Estimated direct band gap   :   0.4711112165E-02
 at k-point     36
 
Charges :
 core                        :    48.00000000    
 valence                     :    108.0000000    
 interstitial                :    20.18449004    
 muffin-tins (core leakage)
  species :    1 (Al)
   atom    1                 :    9.988724063     (  0.1039242334E-02)
   atom    2                 :    11.25404117     (  0.3753717355E-03)
   atom    3                 :    19.39815771     (  0.4263213865E-04)
   atom    4                 :    9.993709763     (  0.5861595361E-03)
   atom    5                 :    9.993970232     (  0.5273255345E-03)
   atom    6                 :    9.994961950     (  0.3977440657E-03)
   atom    7                 :    9.996022121     (  0.2329596503E-03)
   atom    8                 :    9.994691796     (  0.4144784760E-03)
   atom    9                 :    9.995750554     (  0.2821206072E-03)
   atom   10                 :    10.54664673     (  0.1080564493E-02)
   atom   11                 :    11.91305652     (  0.1029985255E-02)
   atom   12                 :    12.74577734     (  0.8753100009E-03)
 total in muffin-tins        :    135.8155100    
 total calculated charge     :    155.9762725    
 total charge                :    156.0000000    
 error                       :   0.2372747840E-01
 
RMS change in Kohn-Sham potential (target) :    22.72602753     (  0.1000000000E-06)
Absolute change in total energy (target)   :    1172.044480     (  0.1000000000E-04)
 
Time (CPU seconds) :     10866.29
 
+--------------------+
| Loop number :   24 |
+--------------------+
 
Energies :
 Fermi                       :    -0.323484376616    
 sum of eigenvalues          :     -1743.03835252    
 electron kinetic            :      111.841040858    
 core electron kinetic       :      2183.18343892    
 Coulomb                     :     -5011.63907606    
 Coulomb potential           :     -1549.65991645    
 nuclear-nuclear             :      2008.30440029    
 electron-nuclear            :     -12490.2270363    
 Hartree                     :      5470.28355991    
 Madelung                    :     -4236.80911784    
 xc potential                :     -305.219476932    
 exchange                    :     -229.888364456    
 correlation                 :     -6.39782944692    
 electron entropic           :    -0.826015077076E-04
 total energy                :     -5136.08431171    
 
Density of states at Fermi energy :    20.60200198    
 (states/Hartree/unit cell)
 
Estimated indirect band gap :   0.6047924087E-02
 from k-point     51 to k-point     21
Estimated direct band gap   :   0.1622969234E-01
 at k-point     17
 
Charges :
 core                        :    48.00000000    
 valence                     :    108.0000000    
 interstitial                :    20.34254715    
 muffin-tins (core leakage)
  species :    1 (Al)
   atom    1                 :    9.989970226     (  0.9530665693E-03)
   atom    2                 :    10.35053731     (  0.5916177078E-03)
   atom    3                 :    9.998721101     (  0.8185269851E-04)
   atom    4                 :    12.05548357     (  0.7599918721E-03)
   atom    5                 :    16.02747462     (  0.7046316730E-03)
   atom    6                 :    15.34600184     (  0.5873937574E-03)
   atom    7                 :    11.28725060     (  0.2479898567E-03)
   atom    8                 :    10.24558084     (  0.5620954146E-03)
   atom    9                 :    9.996348140     (  0.3192503424E-03)
   atom   10                 :    10.37645245     (  0.1009893495E-02)
   atom   11                 :    9.988113433     (  0.1108445554E-02)
   atom   12                 :    9.995518723     (  0.4247596218E-03)
 total in muffin-tins        :    135.6574529    
 total calculated charge     :    155.9598796    
 total charge                :    156.0000000    
 error                       :   0.4012041299E-01
 
RMS change in Kohn-Sham potential (target) :    28.83850764     (  0.1000000000E-06)
Absolute change in total energy (target)   :    2378.067088     (  0.1000000000E-04)
 
Time (CPU seconds) :     11249.75
 
+--------------------+
| Loop number :   25 |
+--------------------+
 
Energies :
 Fermi                       :    -0.523531737968    
 sum of eigenvalues          :     -1671.01284954    
 electron kinetic            :     -582.942011745    
 core electron kinetic       :      2182.58719569    
 Coulomb                     :     -4244.20447160    
 Coulomb potential           :     -799.728345553    
 nuclear-nuclear             :      2008.30440029    
 electron-nuclear            :     -11705.2893982    
 Hartree                     :      5452.78052634    
 Madelung                    :     -3844.34029882    
 xc potential                :     -288.342492241    
 exchange                    :     -216.816842025    
 correlation                 :     -6.53596895503    
 electron entropic           :    -0.324830933046E-03
 total energy                :     -5050.49961916    
 
Density of states at Fermi energy :    97.83108575    
 (states/Hartree/unit cell)
 
Estimated indirect band gap :   0.1228257050E-02
 from k-point     10 to k-point     42
Estimated direct band gap   :   0.5036243089E-02
 at k-point     36
 
Charges :
 core                        :    48.00000000    
 valence                     :    108.0000000    
 interstitial                :    27.04241144    
 muffin-tins (core leakage)
  species :    1 (Al)
   atom    1                 :    11.15017598     (  0.1064939310E-02)
   atom    2                 :    10.36381693     (  0.5573109377E-03)
   atom    3                 :    4.328141142     (  0.1320724524E-03)
   atom    4                 :    9.998046513     (  0.7990358944E-03)
   atom    5                 :    9.988047552     (  0.1060783279E-02)
   atom    6                 :    9.992287030     (  0.6993755832E-03)
   atom    7                 :    10.08958399     (  0.4704415852E-03)
   atom    8                 :    14.28167475     (  0.7016556322E-03)
   atom    9                 :    16.15170908     (  0.4991376752E-03)
   atom   10                 :    12.63010038     (  0.1209365106E-02)
   atom   11                 :    9.987099514     (  0.1182922123E-02)
   atom   12                 :    9.996905686     (  0.5474701161E-03)
 total in muffin-tins        :    128.9575886    
 total calculated charge     :    155.9712339    
 total charge                :    156.0000000    
 error                       :   0.2876607706E-01
 
RMS change in Kohn-Sham potential (target) :    40.54976897     (  0.1000000000E-06)
Absolute change in total energy (target)   :    508.9320793     (  0.1000000000E-04)
 
Time (CPU seconds) :     12547.82
 
+--------------------+
| Loop number :   26 |
+--------------------+
 
Energies :
 Fermi                       :     -1.48603305450    
 sum of eigenvalues          :     -1727.32852658    
 electron kinetic            :     -3581.52320722    
 core electron kinetic       :      2176.66924938    
 Coulomb                     :     -1761.50373920    
 Coulomb potential           :      2126.19954362    
 nuclear-nuclear             :      2008.30440029    
 electron-nuclear            :     -9665.81582260    
 Hartree                     :      5896.00768311    
 Madelung                    :     -2824.60351101    
 xc potential                :     -272.004862986    
 exchange                    :     -203.623975581    
 correlation                 :     -6.92673000576    
 electron entropic           :    -0.415968156043E-03
 total energy                :     -5553.57806797    
 
Density of states at Fermi energy :    135.4176778    
 (states/Hartree/unit cell)
 
Estimated indirect band gap :   0.3400624186E-02
 from k-point     20 to k-point     21
Estimated direct band gap   :   0.1381286586E-01
 at k-point     15
 
Charges :
 core                        :    48.00000000    
 valence                     :    108.0000000    
 interstitial                :    36.88343142    
 muffin-tins (core leakage)
  species :    1 (Al)
   atom    1                 :    11.48190243     (  0.1242692575E-02)
   atom    2                 :    18.23936869     (  0.1139244312E-02)
   atom    3                 :    16.20623058     (  0.1606559300E-03)
   atom    4                 :    11.24290766     (  0.1165918875E-02)
   atom    5                 :    3.998450172     (  0.1683552829E-02)
   atom    6                 :    3.998889670     (  0.1245745504E-02)
   atom    7                 :    9.989314730     (  0.9104611958E-03)
   atom    8                 :    9.991474144     (  0.7518229515E-03)
   atom    9                 :    9.988121147     (  0.1054497233E-02)
   atom   10                 :    9.987296862     (  0.1123021494E-02)
   atom   11                 :    3.998876060     (  0.1257406002E-02)
   atom   12                 :    9.993736432     (  0.4705129964E-03)
 total in muffin-tins        :    119.1165686    
 total calculated charge     :    155.9927922    
 total charge                :    156.0000000    
 error                       :   0.7207780018E-02
 
RMS change in Kohn-Sham potential (target) :    69.53647950     (  0.1000000000E-06)
Absolute change in total energy (target)   :    630.3114686     (  0.1000000000E-04)
 
Time (CPU seconds) :     13866.93
 
+--------------------+
| Loop number :   27 |
+--------------------+
 
Energies :
 Fermi                       :     -1.37652915246    
 sum of eigenvalues          :     -1700.45017031    
 electron kinetic            :      622.616297810    
 core electron kinetic       :      2248.42085504    
 Coulomb                     :     -3813.94459295    
 Coulomb potential           :     -2062.43873777    
 nuclear-nuclear             :      2008.30440029    
 electron-nuclear            :     -9582.05924872    
 Hartree                     :      3759.81025548    
 Madelung                    :     -2782.72522407    
 xc potential                :     -260.627730349    
 exchange                    :     -195.410953646    
 correlation                 :     -6.84855807823    
 electron entropic           :    -0.930820386441E-03
 total energy                :     -3393.58873768    
 
Density of states at Fermi energy :    241.4853865    
 (states/Hartree/unit cell)
 
Estimated indirect band gap :   0.1782007061E-02
 from k-point      5 to k-point     32
Estimated direct band gap   :   0.5161804392E-02
 at k-point     36
 
Charges :
 core                        :    48.00000000    
 valence                     :    108.0000000    
 interstitial                :    42.82993049    
 muffin-tins (core leakage)
  species :    1 (Al)
   atom    1                 :    5.997790871     (  0.1361935088E-02)
   atom    2                 :    5.998320648     (  0.7554382581E-03)
   atom    3                 :    9.996776907     (  0.9282573848E-04)
   atom    4                 :    9.985538485     (  0.1137364490E-02)
   atom    5                 :    11.23645730     (  0.7476201824E-03)
   atom    6                 :    10.08844926     (  0.6309241794E-03)
   atom    7                 :    15.05200258     (  0.1398934764E-02)
   atom    8                 :    5.998643917     (  0.4612192867E-03)
   atom    9                 :    5.996372058     (  0.1691220168E-02)
   atom   10                 :    6.268918636     (  0.1340881721E-02)
   atom   11                 :    17.45107971     (  0.6408062693E-03)
   atom   12                 :    9.099719143     (  0.8544494385E-03)
 total in muffin-tins        :    113.1700695    
 total calculated charge     :    155.9747285    
 total charge                :    156.0000000    
 error                       :   0.2527154866E-01
 
RMS change in Kohn-Sham potential (target) :    35.45177028     (  0.1000000000E-06)
Absolute change in total energy (target)   :    2002.411463     (  0.1000000000E-04)
 
Time (CPU seconds) :     15228.38
 
+--------------------+
| Loop number :   28 |
+--------------------+
 
Energies :
 Fermi                       :     -1.32467194664    
 sum of eigenvalues          :     -1789.51429936    
 electron kinetic            :      222.989449383    
 core electron kinetic       :      2180.38042337    
 Coulomb                     :     -3886.61504315    
 Coulomb potential           :     -1728.73964945    
 nuclear-nuclear             :      2008.30440029    
 electron-nuclear            :     -10061.0992374    
 Hartree                     :      4166.17979400    
 Madelung                    :     -3022.24521843    
 xc potential                :     -283.764099295    
 exchange                    :     -213.051306200    
 correlation                 :     -6.77060566895    
 electron entropic           :    -0.410995419925E-03
 total energy                :     -3883.44791663    
 
Density of states at Fermi energy :    126.6502997    
 (states/Hartree/unit cell)
 
Estimated indirect band gap :   0.1303930062E-02
 from k-point     48 to k-point      2
Estimated direct band gap   :   0.1068626006E-01
 at k-point     26
 
Charges :
 core                        :    48.00000000    
 valence                     :    108.0000000    
 interstitial                :    32.26770587    
 muffin-tins (core leakage)
  species :    1 (Al)
   atom    1                 :    11.71418989     (  0.5548619448E-03)
   atom    2                 :    9.995549947     (  0.2956732641E-03)
   atom    3                 :    10.01961810     (  0.1653807789E-03)
   atom    4                 :    10.35544873     (  0.1137369109E-02)
   atom    5                 :    9.996315678     (  0.2138947308E-03)
   atom    6                 :    6.425395926     (  0.4272666893E-03)
   atom    7                 :    5.997321886     (  0.1246067346E-02)
   atom    8                 :    6.897041063     (  0.2542671696E-03)
   atom    9                 :    9.994195591     (  0.5077637988E-03)
   atom   10                 :    19.88661007     (  0.5398914926E-03)
   atom   11                 :    9.995935693     (  0.2313661343E-03)
   atom   12                 :    12.45467157     (  0.5073264277E-03)
 total in muffin-tins        :    123.7322941    
 total calculated charge     :    155.9813849    
 total charge                :    156.0000000    
 error                       :   0.1861507080E-01
 
RMS change in Kohn-Sham potential (target) :    42.60481572     (  0.1000000000E-06)
Absolute change in total energy (target)   :    10.74368683     (  0.1000000000E-04)
 
Time (CPU seconds) :     16522.77
 
+--------------------+
| Loop number :   29 |
+--------------------+
 
Energies :
 Fermi                       :     -1.34568614172    
 sum of eigenvalues          :     -1736.54066847    
 electron kinetic            :      396.176229881    
 core electron kinetic       :      2221.34468607    
 Coulomb                     :     -4601.76631411    
 Coulomb potential           :     -1852.56276622    
 nuclear-nuclear             :      2008.30440029    
 electron-nuclear            :     -11367.5786626    
 Hartree                     :      4757.50794818    
 Madelung                    :     -3675.48493100    
 xc potential                :     -280.154132134    
 exchange                    :     -210.411698778    
 correlation                 :     -6.73173858840    
 electron entropic           :    -0.287395248271E-02
 total energy                :     -4422.73639554    
 
Density of states at Fermi energy :    1017.273578    
 (states/Hartree/unit cell)
 
Estimated indirect band gap :   0.4891953773E-02
 from k-point     29 to k-point     41
Estimated direct band gap   :   0.5276608198E-02
 at k-point     29
 
Charges :
 core                        :    48.00000000    
 valence                     :    108.0000000    
 interstitial                :    34.80265313    
 muffin-tins (core leakage)
  species :    1 (Al)
   atom    1                 :    10.04689235     (  0.6817714228E-03)
   atom    2                 :    9.994633449     (  0.4362496926E-03)
   atom    3                 :    10.23339400     (  0.3518037815E-03)
   atom    4                 :    9.984472293     (  0.1320924101E-02)
   atom    5                 :    9.995353416     (  0.3374526862E-03)
   atom    6                 :    9.996114658     (  0.2550254873E-03)
   atom    7                 :    11.97080506     (  0.7324350071E-03)
   atom    8                 :    7.274893308     (  0.1980557573E-03)
   atom    9                 :    18.12918339     (  0.6755292418E-03)
   atom   10                 :    7.574621992     (  0.4338058596E-03)
   atom   11                 :    9.995826535     (  0.2894563738E-03)
   atom   12                 :    6.001156421     (  0.8026781838E-03)
 total in muffin-tins        :    121.1973469    
 total calculated charge     :    155.9716943    
 total charge                :    156.0000000    
 error                       :   0.2830569871E-01
 
RMS change in Kohn-Sham potential (target) :    21.64355560     (  0.1000000000E-06)
Absolute change in total energy (target)   :    536.6025572     (  0.1000000000E-04)
 
Time (CPU seconds) :     17851.53
 
+--------------------+
| Loop number :   30 |
+--------------------+
 
Energies :
 Fermi                       :    -0.893368253746    
 sum of eigenvalues          :     -1759.06582431    
[...]
 muffin-tins (core leakage)
  species :    1 (Al)
   atom    1                 :    9.982089125     (  0.1293848892E-02)
   atom    2                 :    10.16661569     (  0.6083860535E-03)
   atom    3                 :    13.59805736     (  0.1070893025E-02)
   atom    4                 :    9.993951410     (  0.5002553326E-03)
   atom    5                 :    9.986654668     (  0.1227387797E-02)
   atom    6                 :    9.967946099     (  0.2416409753E-02)
   atom    7                 :    9.994502698     (  0.4838029205E-03)
   atom    8                 :    10.06114331     (  0.1246835602E-02)
   atom    9                 :    9.989653790     (  0.9722958556E-03)
   atom   10                 :    12.90351405     (  0.1140932067E-02)
   atom   11                 :    15.71417708     (  0.8270143457E-04)
   atom   12                 :    13.92382140     (  0.6778279937E-03)
 total in muffin-tins        :    136.2821267    
 total calculated charge     :    155.9635441    
 total charge                :    156.0000000    
 error                       :   0.3645585020E-01
 
RMS change in Kohn-Sham potential (target) :    29.30116044     (  0.1000000000E-06)
Absolute change in total energy (target)   :    64.21721074     (  0.1000000000E-04)
 
Time (CPU seconds) :    105276.72
 
+--------------------+
| Loop number :  194 |
+--------------------+
 
Energies :
 Fermi                       :     -1.03615145703    
 sum of eigenvalues          :     -1693.06312926    
 electron kinetic            :     -1732.83294414    
 core electron kinetic       :      2197.12907181    
 Coulomb                     :     -3988.90427403    
 Coulomb potential           :      317.704056897    
 nuclear-nuclear             :      2008.30440029    
 electron-nuclear            :     -12312.1214055    
 Hartree                     :      6314.91273122    
 Madelung                    :     -4147.75630248    
 xc potential                :     -277.934242010    
 exchange                    :     -208.740740993    
 correlation                 :     -6.69966290932    
 electron entropic           :    -0.436811388706E-03
 total energy                :     -5937.17805889    
 
Density of states at Fermi energy :    143.3312030    
 (states/Hartree/unit cell)
 
Estimated indirect band gap :   0.7192894539E-03
 from k-point      1 to k-point     52
Estimated direct band gap   :   0.1339854055E-01
 at k-point     47
 
Charges :
 core                        :    48.00000000    
 valence                     :    108.0000000    
 interstitial                :    32.17106707    
 muffin-tins (core leakage)
  species :    1 (Al)
   atom    1                 :    6.005030236     (  0.1024167852E-02)
   atom    2                 :    9.993760559     (  0.5369404281E-03)
   atom    3                 :    3.999238573     (  0.1166679609E-02)
   atom    4                 :    13.33309930     (  0.4584339199E-03)
   atom    5                 :    13.98665979     (  0.9546007322E-03)
   atom    6                 :    15.50925027     (  0.1240095933E-02)
   atom    7                 :    9.995844262     (  0.6333086585E-03)
   atom    8                 :    9.986857728     (  0.1192028697E-02)
   atom    9                 :    9.991986906     (  0.7339120427E-03)
   atom   10                 :    9.985377363     (  0.1285423152E-02)
   atom   11                 :    11.04857657     (  0.9947785266E-04)
   atom   12                 :    9.993251368     (  0.1672325019E-02)
 total in muffin-tins        :    123.8289329    
 total calculated charge     :    155.9781038    
 total charge                :    156.0000000    
 error                       :   0.2189619654E-01
 
RMS change in Kohn-Sham potential (target) :    35.50367452     (  0.1000000000E-06)
Absolute change in total energy (target)   :    3411.315334     (  0.1000000000E-04)
 
Time (CPU seconds) :    105658.08
 
+--------------------+
| Loop number :  195 |
+--------------------+
 
Energies :
 Fermi                       :     -1.09068667506    
 sum of eigenvalues          :     -1720.54334956    
 electron kinetic            :     -1636.23360667    
 core electron kinetic       :      2180.29730833    
 Coulomb                     :     -4030.03039325    
 Coulomb potential           :      204.219279563    
 nuclear-nuclear             :      2008.30440029    
 electron-nuclear            :     -12280.8888666    
 Hartree                     :      6242.55407310    
 Madelung                    :     -4132.14003303    
 xc potential                :     -288.529022454    
 exchange                    :     -216.831326360    
 correlation                 :     -6.69958049808    
 electron entropic           :    -0.232847999831E-03
 total energy                :     -5889.79513963    
 
Density of states at Fermi energy :    70.37375670    
 (states/Hartree/unit cell)
 
Estimated indirect band gap :   0.4189848880E-02
 from k-point     42 to k-point     16
Estimated direct band gap   :   0.1459700211E-01
 at k-point     42
 
Charges :
 core                        :    48.00000000    
 valence                     :    108.0000000    
 interstitial                :    29.27184854    
 muffin-tins (core leakage)
  species :    1 (Al)
   atom    1                 :    9.991160779     (  0.7995020363E-03)
   atom    2                 :    9.991608879     (  0.7727192943E-03)
   atom    3                 :    9.993068982     (  0.6445075395E-03)
   atom    4                 :    9.992117962     (  0.7289511009E-03)
   atom    5                 :    9.985743953     (  0.1178904289E-02)
   atom    6                 :    9.991550834     (  0.7961240191E-03)
   atom    7                 :    10.57224038     (  0.9147944015E-03)
   atom    8                 :    15.62094056     (  0.1159462467E-02)
   atom    9                 :    14.58293007     (  0.1043265445E-02)
   atom   10                 :    12.02512034     (  0.1306197866E-02)
   atom   11                 :    4.000603859     (  0.8217489103E-04)
   atom   12                 :    9.981064861     (  0.1677351870E-02)
 total in muffin-tins        :    126.7281515    
 total calculated charge     :    155.9629781    
 total charge                :    156.0000000    
 error                       :   0.3702192282E-01
 
RMS change in Kohn-Sham potential (target) :    41.18085012     (  0.1000000000E-06)
Absolute change in total energy (target)   :    805.4459143     (  0.1000000000E-04)
 
Time (CPU seconds) :    106040.13
 
+--------------------+
| Loop number :  196 |
+--------------------+
 
Energies :
 Fermi                       :     -1.07913258482    
 sum of eigenvalues          :     -1698.47153846    
 electron kinetic            :     -2264.25323647    
 core electron kinetic       :      2164.33206316    
 Coulomb                     :     -2952.15850124    
 Coulomb potential           :      849.605854514    
 nuclear-nuclear             :      2008.30440029    
 electron-nuclear            :     -10770.5316576    
 Hartree                     :      5810.06875605    
 Madelung                    :     -3376.96142850    
 xc potential                :     -283.824156505    
 exchange                    :     -213.238206318    
 correlation                 :     -6.69739653053    
 electron entropic           :    -0.142605367766E-03
 total energy                :     -5436.34748317    
 
Density of states at Fermi energy :    41.84720008    
 (states/Hartree/unit cell)
 
Estimated indirect band gap :   0.3877280251E-02
 from k-point     40 to k-point     29
Estimated direct band gap   :   0.1951479250E-01
 at k-point     37
 
Charges :
 core                        :    48.00000000    
 valence                     :    108.0000000    
 interstitial                :    29.11222517    
 muffin-tins (core leakage)
  species :    1 (Al)
   atom    1                 :    9.989734360     (  0.8635753782E-03)
   atom    2                 :    17.13255614     (  0.8863931611E-03)
   atom    3                 :    14.52703167     (  0.5980793052E-03)
   atom    4                 :    13.87286847     (  0.8562520467E-03)
   atom    5                 :    9.986383648     (  0.1234806445E-02)
   atom    6                 :    9.993884626     (  0.7479055017E-03)
   atom    7                 :    9.983209228     (  0.1453683193E-02)
   atom    8                 :    9.989803673     (  0.8867233420E-03)
   atom    9                 :    5.999808028     (  0.1370235810E-02)
   atom   10                 :    9.986604154     (  0.1227961645E-02)
   atom   11                 :    5.439597969     (  0.6569655487E-04)
   atom   12                 :    9.986292868     (  0.1699291152E-02)
 total in muffin-tins        :    126.8877748    
 total calculated charge     :    155.9709347    
 total charge                :    156.0000000    
 error                       :   0.2906526780E-01
 
RMS change in Kohn-Sham potential (target) :    59.86669291     (  0.1000000000E-06)
Absolute change in total energy (target)   :    252.0861779     (  0.1000000000E-04)
 
Time (CPU seconds) :    106421.66
 
+--------------------+
| Loop number :  197 |
+--------------------+
 
Energies :
 Fermi                       :     -1.03380216558    
 sum of eigenvalues          :     -1653.95393211    
 electron kinetic            :     -279.572561690    
 core electron kinetic       :      2219.59577461    
 Coulomb                     :     -3934.91513199    
 Coulomb potential           :     -1112.50124320    
 nuclear-nuclear             :      2008.30440029    
 electron-nuclear            :     -10773.9378214    
 Hartree                     :      4830.71828908    
 Madelung                    :     -3378.66451039    
 xc potential                :     -261.880127217    
 exchange                    :     -196.453216431    
 correlation                 :     -6.75081235570    
 electron entropic           :    -0.326216552499E-03
 total energy                :     -4417.69204868    
 
Density of states at Fermi energy :    98.09913149    
 (states/Hartree/unit cell)
 
Estimated indirect band gap :   0.2355358484E-02
 from k-point     30 to k-point     34
Estimated direct band gap   :   0.2648568047E-01
 at k-point      5
 
Charges :
 core                        :    48.00000000    
 valence                     :    108.0000000    
 interstitial                :    40.27299646    
 muffin-tins (core leakage)
  species :    1 (Al)
   atom    1                 :    14.73597946     (  0.8265680858E-03)
   atom    2                 :    3.999879921     (  0.5239613919E-03)
   atom    3                 :    9.978816870     (  0.8305734516E-03)
   atom    4                 :    3.999398589     (  0.1005786026E-02)
   atom    5                 :    14.28771982     (  0.1021636023E-02)
   atom    6                 :    10.01059929     (  0.1321903274E-02)
   atom    7                 :    16.35208727     (  0.9033884464E-03)
   atom    8                 :    5.999215645     (  0.6319335327E-03)
   atom    9                 :    10.32065268     (  0.5453735303E-03)
   atom   10                 :    6.002582259     (  0.1216625658E-02)
   atom   11                 :    10.04494721     (  0.5304084777E-04)
   atom   12                 :    9.995124529     (  0.4919460009E-03)
 total in muffin-tins        :    115.7270035    
 total calculated charge     :    155.9781831    
 total charge                :    156.0000000    
 error                       :   0.2181694801E-01
 
RMS change in Kohn-Sham potential (target) :    25.45764991     (  0.1000000000E-06)
Absolute change in total energy (target)   :    1081.676979     (  0.1000000000E-04)
 
Time (CPU seconds) :    106803.16
 
+--------------------+
| Loop number :  198 |
+--------------------+
 
Energies :
 Fermi                       :    -0.832920922438    
 sum of eigenvalues          :     -1703.96193830    
 electron kinetic            :      576.635359267    
 core electron kinetic       :      2195.77829098    
 Coulomb                     :     -4863.68851710    
 Coulomb potential           :     -1993.82839213    
 nuclear-nuclear             :      2008.30440029    
 electron-nuclear            :     -11750.1574426    
 Hartree                     :      4878.16452526    
 Madelung                    :     -3866.77432103    
 xc potential                :     -286.768905441    
 exchange                    :     -215.713497489    
 correlation                 :     -6.49523616906    
 electron entropic           :    -0.321839358121E-03
 total energy                :     -4509.26221333    
 
Density of states at Fermi energy :    88.58120558    
 (states/Hartree/unit cell)
 
Estimated indirect band gap :   0.2229523571E-02
 from k-point     30 to k-point      1
Estimated direct band gap   :   0.6165136387E-02
 at k-point     26
 
Charges :
 core                        :    48.00000000    
 valence                     :    108.0000000    
 interstitial                :    26.38030190    
 muffin-tins (core leakage)
  species :    1 (Al)
   atom    1                 :    9.984559020     (  0.1381904507E-02)
   atom    2                 :    9.995979481     (  0.2295466508E-03)
   atom    3                 :    5.996328768     (  0.1724271525E-02)
   atom    4                 :    15.50874814     (  0.4431598504E-03)
   atom    5                 :    9.989970572     (  0.6140445091E-03)
   atom    6                 :    17.62018502     (  0.1426240528E-02)
   atom    7                 :    5.998017050     (  0.6619713507E-03)
   atom    8                 :    12.04210926     (  0.3387596907E-03)
   atom    9                 :    10.00989874     (  0.6504482324E-03)
   atom   10                 :    12.64626678     (  0.6288178972E-03)
   atom   11                 :    9.781489331     (  0.5262070608E-04)
   atom   12                 :    10.04614592     (  0.1417274837E-02)
 total in muffin-tins        :    129.6196981    
 total calculated charge     :    155.9772317    
 total charge                :    156.0000000    
 error                       :   0.2276834820E-01
 
RMS change in Kohn-Sham potential (target) :    19.71474462     (  0.1000000000E-06)
Absolute change in total energy (target)   :    178.8490801     (  0.1000000000E-04)
 
Time (CPU seconds) :    107185.13
 
+--------------------+
| Loop number :  199 |
+--------------------+
 
Energies :
 Fermi                       :    -0.477090107946    
 sum of eigenvalues          :     -1680.20785786    
 electron kinetic            :      1777.02074404    
 core electron kinetic       :      2210.78968584    
 Coulomb                     :     -4056.23239895    
 Coulomb potential           :     -3155.02692422    
 nuclear-nuclear             :      2008.30440029    
 electron-nuclear            :     -8974.04667426    
 Hartree                     :      2909.50987502    
 Madelung                    :     -2478.71893684    
 xc potential                :     -302.201677680    
 exchange                    :     -227.392840741    
 correlation                 :     -6.56946448336    
 electron entropic           :    -0.556284446090E-03
 total energy                :     -2513.17451642    
 
Density of states at Fermi energy :    175.3274671    
 (states/Hartree/unit cell)
 
Estimated indirect band gap :   0.4080157079E-03
 from k-point     32 to k-point      2
Estimated direct band gap   :   0.3470268058E-02
 at k-point     12
 
Charges :
 core                        :    48.00000000    
 valence                     :    108.0000000    
 interstitial                :    20.54033006    
 muffin-tins (core leakage)
  species :    1 (Al)
   atom    1                 :    9.971226344     (  0.2179213800E-02)
   atom    2                 :    9.995654695     (  0.3213301516E-03)
   atom    3                 :    10.00512226     (  0.9799481484E-03)
   atom    4                 :    9.993812565     (  0.5470347618E-03)
   atom    5                 :    9.993143642     (  0.5851651096E-03)
   atom    6                 :    11.95348415     (  0.2851650863E-02)
   atom    7                 :    9.995866544     (  0.2699864599E-03)
   atom    8                 :    9.994825622     (  0.4315349189E-03)
   atom    9                 :    9.991070131     (  0.8406537921E-03)
   atom   10                 :    10.14228808     (  0.7889239177E-03)
   atom   11                 :    20.93236760     (  0.4936554707E-04)
   atom   12                 :    12.49080831     (  0.1106849216E-02)
 total in muffin-tins        :    135.4596699    
 total calculated charge     :    155.9684550    
 total charge                :    156.0000000    
 error                       :   0.3154501250E-01
 
RMS change in Kohn-Sham potential (target) :    46.63805181     (  0.1000000000E-06)
Absolute change in total energy (target)   :    2040.799967     (  0.1000000000E-04)
 
Time (CPU seconds) :    107566.37
 
+--------------------+
| Loop number :  200 |
+--------------------+
 
Reached self-consistent loops maximum
 
Energies :
 Fermi                       :    -0.415077508533    
 sum of eigenvalues          :     -1712.67972876    
 electron kinetic            :      1841.41365027    
 core electron kinetic       :      2177.26276331    
 Coulomb                     :     -5276.52162446    
 Coulomb potential           :     -3260.64554439    
 nuclear-nuclear             :      2008.30440029    
 electron-nuclear            :     -11309.0065051    
 Hartree                     :      4024.18048037    
 Madelung                    :     -3646.19885227    
 xc potential                :     -293.447834643    
 exchange                    :     -220.930404685    
 correlation                 :     -6.38524104805    
 electron entropic           :    -0.503553199482E-03
 total energy                :     -3662.42412348    
 
Density of states at Fermi energy :    169.9991449    
 (states/Hartree/unit cell)
 
Estimated indirect band gap :   0.1743420381E-03
 from k-point     13 to k-point      7
Estimated direct band gap   :   0.7538334514E-02
 at k-point     37
 
Charges :
 core                        :    48.00000000    
 valence                     :    108.0000000    
 interstitial                :    25.21106444    
 muffin-tins (core leakage)
  species :    1 (Al)
   atom    1                 :    11.32358667     (  0.1613126549E-02)
   atom    2                 :    10.00954103     (  0.3551041841E-03)
   atom    3                 :    13.21887133     (  0.8722550901E-03)
   atom    4                 :    9.993284138     (  0.6285743415E-03)
   atom    5                 :    9.992751672     (  0.6677663274E-03)
   atom    6                 :    9.970169623     (  0.2168241981E-02)
   atom    7                 :    10.12673442     (  0.4006680920E-03)
   atom    8                 :    12.82388470     (  0.4635877847E-03)
   atom    9                 :    14.24806870     (  0.7877047381E-03)
   atom   10                 :    14.15058018     (  0.8022054353E-03)
   atom   11                 :    4.005338021     (  0.5535542476E-04)
   atom   12                 :    10.92612506     (  0.1171839478E-02)
 total in muffin-tins        :    130.7889356    
 total calculated charge     :    155.9595162    
 total charge                :    156.0000000    
 error                       :   0.4048375443E-01
 
+------------------------------+
| Self-consistent loop stopped |
+------------------------------+
 
Wrote STATE.OUT
 
Timings (CPU seconds) :
 initialisation                        :        13.06
 Hamiltonian and overlap matrix set up :      9285.75
 first-variational eigenvalue equation :     97342.23
 charge density calculation            :       417.55
 potential calculation                 :       888.59
 total                                 :    107947.17
 
+----------------------------+
| Elk version 7.2.42 stopped |
+----------------------------+
